<?xml version="1.0"?>
<VTKFile type="UnstructuredGrid" version="0.1" byte_order="LittleEndian" header_type="UInt32" compressor="vtkZLibDataCompressor">
  <UnstructuredGrid>
    <Piece NumberOfPoints="336" NumberOfCells="42">
      <PointData>
      </PointData>
      <CellData Scalars="thickness_direction">
        <DataArray type="Float64" Name="thickness_direction" NumberOfComponents="3" format="ascii" RangeMin="0.04653329379086736" RangeMax="0.2646670467179702">
          0.046134958825765564 -0.05947153651009232 -0.246076332604959 0.020934752602537653 -0.06954200715634265 -0.2545079389578053
          0.006565241166722302 -0.08182801240015192 -0.2272168437848885 0.010699692706875819 -0.07848758243143582 -0.18112469377530638
          0.014031251579558035 -0.03773752732363106 -0.13117984648837244 0.003898839618518196 0.026321457000283273 -0.12879912148454659
          -0.009213860087534193 0.061711011222242984 -0.1747610457160202 -0.009723998555535712 0.0622759569839991 -0.21295864030165848
          0.006768177811759646 0.05185765372513318 -0.22081579531277584 0.005266166072848809 0.032906322270462446 -0.18129105456280997
          -0.02539965986357061 0.02049057096795384 -0.17880400632658472 -0.03898252707132202 0.0270101356922178 -0.2125754858294593
          -0.034032453724406 0.031100862189983244 -0.20517724564121975 -0.036121860469547545 0.026749136716831916 -0.18895205749976965
          -0.039104833692394037 0.020911649457725626 -0.17045996921717227 -0.018978772550989426 -0.00014686372648348156 -0.13568418478261393
          0.027139644788011646 -0.037188514197860706 -0.14518621460683362 0.05589617445052679 -0.05724039821822957 -0.20378412250485678
          0.07114737271532216 -0.1740237717166176 -0.18544180469600952 0.05958705784038809 -0.15148320468335275 -0.15779799724388838
          0.011699615283895876 0.14339736194281896 -0.16288411079701418 0.05546957474410211 0.1682749777012619 -0.19242261705302593
          -0.16622750478620296 0.036907711992999775 -0.13491315920675817 -0.13689048625338646 0.089326662848079 -0.18999917929054966
          -0.08167130573345908 0.06938817051031536 -0.1505916179511038 -0.08035363973909894 0.02656516807520497 -0.1372667979717371
          -0.09680963070886596 0.019954862239614495 -0.13950774223183066 0.08633760988668956 -0.14567834409790928 -0.13999126731641123
          0.08563812381698195 -0.17038090275193551 -0.18134236738375617 0.02448439658189671 0.014579289069477024 0.03915463393892753
          0.00524112186226388 0.015048514816139353 0.04371979270857204 -0.016940240549358405 0.008401241459641133 0.04256054011712132
          -0.026028773521823353 -0.019573570175155222 0.035180612542871595 0.027978429848167022 -0.0016639542440201917 0.0395914001260754
          -0.008454640183088669 -0.015185270039059237 0.04374358939658354 0.10366958319464342 -0.039458758898783655 0.09610068831769722
          -0.032606196009492425 -0.0013547994809917502 0.03575173034149334 0.011854806375631445 -0.008438479561573935 0.04499176086514413
          -0.00916321305004876 -0.11393575226400066 0.0809095919058542 0.011487919203729643 0.12033017231378379 -0.12627024620963098
          0.035786333842797724 0.007953126617830424 0.03225780675153139 -0.056176263905833065 0.12365190889922711 0.1229537214096938
          <InformationKey name="L2_NORM_RANGE" location="vtkDataArray" length="2">
            <Value index="0">
              0.046533293791
            </Value>
            <Value index="1">
              0.26466704672
            </Value>
          </InformationKey>
        </DataArray>
      </CellData>
      <Points>
        <DataArray type="Float32" Name="Points" NumberOfComponents="3" format="ascii" RangeMin="0.9999999728715864" RangeMax="1.1000000474677083">
          0.2776768 -0.8230486 0.49546605 0.30544445 -0.9053535 0.54501265
          -0.12254975 -0.9790944 0.48616436 -0.11140886 -0.8900858 0.4419676
          0.34202015 -0.9396926 0 0.37622216 -1.0336618 0
          0 -1.1 0 0 -1 0
          0.62737954 -0.61776656 0.474088 0.6901175 -0.6795432 0.5214968
          0.30544445 -0.9053535 0.54501265 0.2776768 -0.8230486 0.49546605
          0.64278764 -0.76604444 0 0.70706636 -0.84264886 0
          0.37622216 -1.0336618 0 0.34202015 -0.9396926 0
          0.856423 -0.33655214 0.39149997 0.94206536 -0.37020737 0.43064997
          0.6901175 -0.6795432 0.5214968 0.62737954 -0.61776656 0.474088
          0.8660254 -0.5 0 0.95262796 -0.55 0
          0.70706636 -0.84264886 0 0.64278764 -0.76604444 0
          0.9536494 -0.038095716 0.29849887 1.0490143 -0.041905288 0.32834876
          0.94206536 -0.37020737 0.43064997 0.856423 -0.33655214 0.39149997
          0.9848077 -0.17364818 0 1.0832886 -0.191013 0
          0.95262796 -0.55 0 0.8660254 -0.5 0
          0.96251374 0.18185772 0.2012339 1.058765 0.2000435 0.22135729
          1.0490143 -0.041905288 0.32834876 0.9536494 -0.038095716 0.29849887
          0.9848077 0.17364818 0 1.0832886 0.191013 0
          1.0832886 -0.191013 0 0.9848077 -0.17364818 0
          0.8734667 0.39151824 0.28942943 0.96081334 0.43067005 0.31837237
          1.058765 0.2000435 0.22135729 0.96251374 0.18185772 0.2012339
          0.8660254 0.5 0 0.95262796 0.55 0
          1.0832886 0.191013 0 0.9848077 0.17364818 0
          0.67044675 0.63943666 0.37632695 0.7374914 0.7033803 0.41395962
          0.96081334 0.43067005 0.31837237 0.8734667 0.39151824 0.28942943
          0.64278764 0.76604444 0 0.70706636 0.84264886 0
          0.95262796 0.55 0 0.8660254 0.5 0
          0.35140482 0.8290587 0.43494406 0.3865453 0.91196454 0.4784385
          0.7374914 0.7033803 0.41395962 0.67044675 0.63943666 0.37632695
          0.34202015 0.9396926 0 0.37622216 1.0336618 0
          0.70706636 0.84264886 0 0.64278764 0.76604444 0
          -0.035168216 0.913081 0.40625894 -0.038685035 1.004389 0.44688484
          0.3865453 0.91196454 0.4784385 0.35140482 0.8290587 0.43494406
          -1.2246469e-16 1 0 -1.3471115e-16 1.1 0
          0.37622216 1.0336618 0 0.34202015 0.9396926 0
          -0.3269135 0.90125424 0.28437364 -0.35960487 0.9913797 0.312811
          -0.038685035 1.004389 0.44688484 -0.035168216 0.913081 0.40625894
          -0.34202015 0.9396926 0 -0.37622216 1.0336618 0
          -1.3471115e-16 1.1 0 -1.2246469e-16 1 0
          -0.5611336 0.7264235 0.39678448 -0.617247 0.7990659 0.43646294
          -0.35960487 0.9913797 0.312811 -0.3269135 0.90125424 0.28437364
          -0.64278764 0.76604444 0 -0.70706636 0.84264886 0
          -0.37622216 1.0336618 0 -0.34202015 0.9396926 0
          -0.79917455 0.43672517 0.4130269 -0.879092 0.4803977 0.45432958
          -0.617247 0.7990659 0.43646294 -0.5611336 0.7264235 0.39678448
          -0.8660254 0.5 0 -0.95262796 0.55 0
          -0.70706636 0.84264886 0 -0.64278764 0.76604444 0
          -0.9220112 0.11844353 0.36860073 -1.0142124 0.13028789 0.40546077
          -0.879092 0.4803977 0.45432958 -0.79917455 0.43672517 0.4130269
          -0.9848077 0.17364818 0 -1.0832886 0.191013 0
          -0.95262796 0.55 0 -0.8660254 0.5 0
          -0.9099972 -0.220345 0.35121664 -1.000997 -0.2423795 0.38633832
          -1.0142124 0.13028789 0.40546077 -0.9220112 0.11844353 0.36860073
          -0.9848077 -0.17364818 0 -1.0832886 -0.191013 0
          -1.0832886 0.191013 0 -0.9848077 0.17364818 0
          -0.7918651 -0.5329666 0.29815465 -0.87105167 -0.58626324 0.32797012
          -1.000997 -0.2423795 0.38633832 -0.9099972 -0.220345 0.35121664
          -0.8660254 -0.5 0 -0.95262796 -0.55 0
          -1.0832886 -0.191013 0 -0.9848077 -0.17364818 0
          -0.6446478 -0.7325184 0.21873747 -0.7091126 -0.8057702 0.24061123
          -0.87105167 -0.58626324 0.32797012 -0.7918651 -0.5329666 0.29815465
          -0.64278764 -0.76604444 0 -0.70706636 -0.84264886 0
          -0.95262796 -0.55 0 -0.8660254 -0.5 0
          -0.4435491 -0.83154815 0.33435288 -0.48790398 -0.914703 0.36778817
          -0.7091126 -0.8057702 0.24061123 -0.6446478 -0.7325184 0.21873747
          -0.34202015 -0.9396926 0 -0.37622216 -1.0336618 0
          -0.70706636 -0.84264886 0 -0.64278764 -0.76604444 0
          -0.11140886 -0.8900858 0.4419676 -0.12254975 -0.9790944 0.48616436
          -0.48790398 -0.914703 0.36778817 -0.4435491 -0.83154815 0.33435288
          0 -1 0 0 -1.1 0
          -0.37622216 -1.0336618 0 -0.34202015 -0.9396926 0
          0.50816023 -0.29621613 0.8087207 0.55897623 -0.32583773 0.88959277
          0.13844433 -0.52981645 0.95400614 0.12585849 -0.4816513 0.8672783
          0.62737954 -0.61776656 0.474088 0.6901175 -0.6795432 0.5214968
          0.30544445 -0.9053535 0.54501265 0.2776768 -0.8230486 0.49546605
          0.74864405 -0.081023686 0.6580025 0.82350844 -0.08912606 0.72380275
          0.55897623 -0.32583773 0.88959277 0.50816023 -0.29621613 0.8087207
          0.856423 -0.33655214 0.39149997 0.94206536 -0.37020737 0.43064997
          0.6901175 -0.6795432 0.5214968 0.62737954 -0.61776656 0.474088
          0.32455525 0.52709615 0.7853875 0.35701075 0.5798058 0.8639263
          0.717999 0.43463585 0.7110338 0.65272635 0.3951235 0.6463944
          0.35140482 0.8290587 0.43494406 0.3865453 0.91196454 0.4784385
          0.7374914 0.7033803 0.41395962 0.67044675 0.63943666 0.37632695
          -0.21963128 0.57399595 0.78885406 -0.24159442 0.6313956 0.86773944
          0.35701075 0.5798058 0.8639263 0.32455525 0.52709615 0.7853875
          -0.035168216 0.913081 0.40625894 -0.038685035 1.004389 0.44688484
          0.3865453 0.91196454 0.4784385 0.35140482 0.8290587 0.43494406
          -0.21963128 0.57399595 0.78885406 -0.24159442 0.6313956 0.86773944
          -0.038685035 1.004389 0.44688484 -0.035168216 0.913081 0.40625894
          -0.5611336 0.7264235 0.39678448 -0.617247 0.7990659 0.43646294
          -0.35960487 0.9913797 0.312811 -0.3269135 0.90125424 0.28437364
          -0.61918926 0.24886067 0.74476373 -0.68110824 0.27374673 0.8192401
          -0.24159442 0.6313956 0.86773944 -0.21963128 0.57399595 0.78885406
          -0.79917455 0.43672517 0.4130269 -0.879092 0.4803977 0.45432958
          -0.617247 0.7990659 0.43646294 -0.5611336 0.7264235 0.39678448
          -0.7908676 0.04197214 0.61054623 -0.8699544 0.04616936 0.6716009
          -0.68110824 0.27374673 0.8192401 -0.61918926 0.24886067 0.74476373
          -0.9220112 0.11844353 0.36860073 -1.0142124 0.13028789 0.40546077
          -0.879092 0.4803977 0.45432958 -0.79917455 0.43672517 0.4130269
          -0.73503166 -0.24507426 0.63219225 -0.80853486 -0.26958168 0.6954115
          -0.8699544 0.04616936 0.6716009 -0.7908676 0.04197214 0.61054623
          -0.9099972 -0.220345 0.35121664 -1.000997 -0.2423795 0.38633832
          -1.0142124 0.13028789 0.40546077 -0.9220112 0.11844353 0.36860073
          -0.5980321 -0.5842559 0.54863715 -0.6578353 -0.6426815 0.60350084
          -0.80853486 -0.26958168 0.6954115 -0.73503166 -0.24507426 0.63219225
          -0.7918651 -0.5329666 0.29815465 -0.87105167 -0.58626324 0.32797012
          -1.000997 -0.2423795 0.38633832 -0.9099972 -0.220345 0.35121664
          -0.28583103 -0.58241296 0.7609834 -0.31441414 -0.64065427 0.83708173
          -0.6578353 -0.6426815 0.60350084 -0.5980321 -0.5842559 0.54863715
          -0.11140886 -0.8900858 0.4419676 -0.12254975 -0.9790944 0.48616436
          -0.48790398 -0.914703 0.36778817 -0.4435491 -0.83154815 0.33435288
          0.12585849 -0.4816513 0.8672783 0.13844433 -0.52981645 0.95400614
          -0.31441414 -0.64065427 0.83708173 -0.28583103 -0.58241296 0.7609834
          0.2776768 -0.8230486 0.49546605 0.30544445 -0.9053535 0.54501265
          -0.12254975 -0.9790944 0.48616436 -0.11140886 -0.8900858 0.4419676
          0.65272635 0.3951235 0.6463944 0.32455525 0.52709615 0.7853875
          0.3673574 0.09940387 0.92475265 0.61411273 0.1447196 0.77583617
          0.717999 0.43463585 0.7110338 0.35701075 0.5798058 0.8639263
          0.40409312 0.10934426 1.0172279 0.675524 0.15919155 0.8534198
          0.32455525 0.52709615 0.7853875 -0.21963128 0.57399595 0.78885406
          -0.052991588 0.0033851943 0.9985892 0.3673574 0.09940387 0.92475265
          0.35701075 0.5798058 0.8639263 -0.24159442 0.6313956 0.86773944
          -0.058290746 0.0037237138 1.0984482 0.40409312 0.10934426 1.0172279
          -0.21963128 0.57399595 0.78885406 -0.61918926 0.24886067 0.74476373
          -0.46340707 -0.15414251 0.8726362 -0.052991588 0.0033851943 0.9985892
          -0.24159442 0.6313956 0.86773944 -0.68110824 0.27374673 0.8192401
          -0.5097478 -0.16955677 0.95989984 -0.058290746 0.0037237138 1.0984482
          -0.73503166 -0.24507426 0.63219225 -0.5980321 -0.5842559 0.54863715
          -0.28583103 -0.58241296 0.7609834 -0.46340707 -0.15414251 0.8726362
          -0.80853486 -0.26958168 0.6954115 -0.6578353 -0.6426815 0.60350084
          -0.31441414 -0.64065427 0.83708173 -0.5097478 -0.16955677 0.95989984
          0.61411273 0.1447196 0.77583617 0.3673574 0.09940387 0.92475265
          0.50816023 -0.29621613 0.8087207 0.74864405 -0.081023686 0.6580025
          0.675524 0.15919155 0.8534198 0.40409312 0.10934426 1.0172279
          0.55897623 -0.32583773 0.88959277 0.82350844 -0.08912606 0.72380275
          -0.46340707 -0.15414251 0.8726362 -0.28583103 -0.58241296 0.7609834
          0.12585849 -0.4816513 0.8672783 -0.052991588 0.0033851943 0.9985892
          -0.5097478 -0.16955677 0.95989984 -0.31441414 -0.64065427 0.83708173
          0.13844433 -0.52981645 0.95400614 -0.058290746 0.0037237138 1.0984482
          -0.87105167 -0.58626324 0.32797012 -0.7091126 -0.8057702 0.24061123
          -0.6446478 -0.7325184 0.21873747 -0.7918651 -0.5329666 0.29815465
          -0.6578353 -0.6426815 0.60350084 -0.48790398 -0.914703 0.36778817
          -0.4435491 -0.83154815 0.33435288 -0.5980321 -0.5842559 0.54863715
          -0.46340707 -0.15414251 0.8726362 -0.61918926 0.24886067 0.74476373
          -0.7908676 0.04197214 0.61054623 -0.73503166 -0.24507426 0.63219225
          -0.5097478 -0.16955677 0.95989984 -0.68110824 0.27374673 0.8192401
          -0.8699544 0.04616936 0.6716009 -0.80853486 -0.26958168 0.6954115
          -0.052991588 0.0033851943 0.9985892 0.12585849 -0.4816513 0.8672783
          0.50816023 -0.29621613 0.8087207 0.3673574 0.09940387 0.92475265
          -0.058290746 0.0037237138 1.0984482 0.13844433 -0.52981645 0.95400614
          0.55897623 -0.32583773 0.88959277 0.40409312 0.10934426 1.0172279
          0.96251374 0.18185772 0.2012339 1.058765 0.2000435 0.22135729
          0.96081334 0.43067005 0.31837237 0.8734667 0.39151824 0.28942943
          0.9536494 -0.038095716 0.29849887 1.0490143 -0.041905288 0.32834876
          0.9321659 0.19517379 0.5504306 0.84742355 0.17743072 0.5003915
          0.717999 0.43463585 0.7110338 0.9321659 0.19517379 0.5504306
          0.84742355 0.17743072 0.5003915 0.65272635 0.3951235 0.6463944
          0.7374914 0.7033803 0.41395962 0.96081334 0.43067005 0.31837237
          0.8734667 0.39151824 0.28942943 0.67044675 0.63943666 0.37632695
          0.84742355 0.17743072 0.5003915 0.65272635 0.3951235 0.6463944
          0.61411273 0.1447196 0.77583617 0.74864405 -0.081023686 0.6580025
          0.9321659 0.19517379 0.5504306 0.717999 0.43463585 0.7110338
          0.675524 0.15919155 0.8534198 0.82350844 -0.08912606 0.72380275
          0.856423 -0.33655214 0.39149997 0.94206536 -0.37020737 0.43064997
          1.0490143 -0.041905288 0.32834876 0.9536494 -0.038095716 0.29849887
          0.74864405 -0.081023686 0.6580025 0.82350844 -0.08912606 0.72380275
          0.9321659 0.19517379 0.5504306 0.84742355 0.17743072 0.5003915
          <InformationKey name="L2_NORM_RANGE" location="vtkDataArray" length="2">
            <Value index="0">
              0.99999997287
            </Value>
            <Value index="1">
              1.1000000475
            </Value>
          </InformationKey>
        </DataArray>
      </Points>
      <Cells>
        <DataArray type="Int64" Name="connectivity" format="ascii" RangeMin="0" RangeMax="335">
          0 1 2 3 4 5
          6 7 8 9 10 11
          12 13 14 15 16 17
          18 19 20 21 22 23
          24 25 26 27 28 29
          30 31 32 33 34 35
          36 37 38 39 40 41
          42 43 44 45 46 47
          48 49 50 51 52 53
          54 55 56 57 58 59
          60 61 62 63 64 65
          66 67 68 69 70 71
          72 73 74 75 76 77
          78 79 80 81 82 83
          84 85 86 87 88 89
          90 91 92 93 94 95
          96 97 98 99 100 101
          102 103 104 105 106 107
          108 109 110 111 112 113
          114 115 116 117 118 119
          120 121 122 123 124 125
          126 127 128 129 130 131
          132 133 134 135 136 137
          138 139 140 141 142 143
          144 145 146 147 148 149
          150 151 152 153 154 155
          156 157 158 159 160 161
          162 163 164 165 166 167
          168 169 170 171 172 173
          174 175 176 177 178 179
          180 181 182 183 184 185
          186 187 188 189 190 191
          192 193 194 195 196 197
          198 199 200 201 202 203
          204 205 206 207 208 209
          210 211 212 213 214 215
          216 217 218 219 220 221
          222 223 224 225 226 227
          228 229 230 231 232 233
          234 235 236 237 238 239
          240 241 242 243 244 245
          246 247 248 249 250 251
          252 253 254 255 256 257
          258 259 260 261 262 263
          264 265 266 267 268 269
          270 271 272 273 274 275
          276 277 278 279 280 281
          282 283 284 285 286 287
          288 289 290 291 292 293
          294 295 296 297 298 299
          300 301 302 303 304 305
          306 307 308 309 310 311
          312 313 314 315 316 317
          318 319 320 321 322 323
          324 325 326 327 328 329
          330 331 332 333 334 335
        </DataArray>
        <DataArray type="Int64" Name="offsets" format="ascii" RangeMin="8" RangeMax="336">
          8 16 24 32 40 48
          56 64 72 80 88 96
          104 112 120 128 136 144
          152 160 168 176 184 192
          200 208 216 224 232 240
          248 256 264 272 280 288
          296 304 312 320 328 336
        </DataArray>
        <DataArray type="UInt8" Name="types" format="ascii" RangeMin="12" RangeMax="12">
          12 12 12 12 12 12
          12 12 12 12 12 12
          12 12 12 12 12 12
          12 12 12 12 12 12
          12 12 12 12 12 12
          12 12 12 12 12 12
          12 12 12 12 12 12
        </DataArray>
      </Cells>
    </Piece>
  </UnstructuredGrid>
</VTKFile>
