<?xml version="1.0"?>
<VTKFile type="UnstructuredGrid" version="0.1" byte_order="LittleEndian" header_type="UInt32" compressor="vtkZLibDataCompressor">
  <UnstructuredGrid>
    <Piece NumberOfPoints="18" NumberOfCells="6">
      <PointData>
        <DataArray type="Float64" Name="node_value" format="ascii" RangeMin="0.5" RangeMax="1">
          1 0.5 1 1 0.5 1
          1 0.5 1 1 0.5 1
          1 0.5 1 1 0.5 1
        </DataArray>
        <DataArray type="Float64" Name="base_vector_1" NumberOfComponents="3" format="ascii" RangeMin="0.9999999999999999" RangeMax="1">
          1 0 0 1 0 0
          1 0 0 1 0 0
          1 0 0 1 0 0
          1 0 0 1 0 0
          1 0 0 1 0 0
          1 0 0 1 0 0
          1 0 0 0.9238795325112867 -0.3826834323650897 0
          0.7071067811865475 -0.7071067811865476 0 0.7071067811865475 -0.7071067811865476 0
          0.38268343236508984 -0.9238795325112866 0 0 -1 0
          <InformationKey name="L2_NORM_RANGE" location="vtkDataArray" length="2">
            <Value index="0">
              1
            </Value>
            <Value index="1">
              1
            </Value>
          </InformationKey>
        </DataArray>
        <DataArray type="Float64" Name="base_vector_2" NumberOfComponents="3" format="ascii" RangeMin="0.9999999999999999" RangeMax="1">
          0 1 0 0 1 0
          0 1 0 0 1 0
          0 1 0 0 1 0
          0 1 0 0 1 0
          0 1 0 0 1 0
          0 1 0 0 1 0
          0 -1 0 -0.3826834323650897 -0.9238795325112867 0
          -0.7071067811865476 -0.7071067811865475 0 -0.7071067811865476 -0.7071067811865475 0
          -0.9238795325112866 -0.38268343236508984 0 -1 0 0
          <InformationKey name="L2_NORM_RANGE" location="vtkDataArray" length="2">
            <Value index="0">
              1
            </Value>
            <Value index="1">
              1
            </Value>
          </InformationKey>
        </DataArray>
        <DataArray type="Float64" Name="base_vector_3" NumberOfComponents="3" format="ascii" RangeMin="1" RangeMax="1">
          0 0 1 0 0 1
          0 0 1 0 0 1
          0 0 1 0 0 1
          0 0 1 0 0 1
          0 0 1 0 0 1
          0 0 1 0 0 1
          0 0 -1 0 0 -1
          0 0 -1 0 0 -1
          0 0 -1 0 0 -1
          <InformationKey name="L2_NORM_RANGE" location="vtkDataArray" length="2">
            <Value index="0">
              1
            </Value>
            <Value index="1">
              1
            </Value>
          </InformationKey>
        </DataArray>
      </PointData>
      <CellData>
        <DataArray type="Float64" Name="cross_section_radius" format="ascii" RangeMin="0.05" RangeMax="0.05">
          0.05 0.05 0.05 0.05 0.05 0.05
        </DataArray>
        <DataArray type="Int32" Name="cell_data" format="ascii" RangeMin="1" RangeMax="69">
          69 69 1 1 2 2
        </DataArray>
        <DataArray type="Float64" Name="other_data" format="ascii" RangeMin="69" RangeMax="69.69">
          69.69 69.69 69.69 69.69 69 69
        </DataArray>
      </CellData>
      <Points>
        <DataArray type="Float32" Name="Points" NumberOfComponents="3" format="ascii" RangeMin="0" RangeMax="3.5">
          0 0 0 0.5 0 0
          1 0 0 1 0 0
          1.5 0 0 2 0 0
          0 1 0 0.5 1 0
          1 1 0 1 1 0
          1.5 1 0 2 1 0
          0 3.5 -1.8369701465288538e-16 0.5740251541137695 3.38581919670105 -1.6971391682692557e-16
          1.0606601238250732 3.0606601238250732 -1.2989340243395341e-16 1.0606601238250732 3.0606601238250732 -1.2989340243395341e-16
          1.3858193159103394 2.5740251541137695 -7.029780539147615e-17 1.5 2 -3.697785493223493e-32
          <InformationKey name="L2_NORM_RANGE" location="vtkDataArray" length="2">
            <Value index="0">
              0
            </Value>
            <Value index="1">
              3.5
            </Value>
          </InformationKey>
        </DataArray>
      </Points>
      <Cells>
        <DataArray type="Int64" Name="connectivity" format="ascii" RangeMin="0" RangeMax="17">
          0 1 2 3 4 5
          6 7 8 9 10 11
          12 13 14 15 16 17
        </DataArray>
        <DataArray type="Int64" Name="offsets" format="ascii" RangeMin="3" RangeMax="18">
          3 6 9 12 15 18
        </DataArray>
        <DataArray type="UInt8" Name="types" format="ascii" RangeMin="4" RangeMax="4">
          4 4 4 4 4 4
        </DataArray>
      </Cells>
    </Piece>
  </UnstructuredGrid>
</VTKFile>
