<?xml version="1.0"?>
<VTKFile type="UnstructuredGrid" version="0.1" byte_order="LittleEndian" header_type="UInt32" compressor="vtkZLibDataCompressor">
  <UnstructuredGrid>
    <Piece NumberOfPoints="336" NumberOfCells="42">
      <PointData>
      </PointData>
      <CellData Scalars="thickness_direction">
        <DataArray type="Float64" Name="thickness_direction" NumberOfComponents="3" format="ascii" RangeMin="0.04653329379086736" RangeMax="0.2646670467179702">
          0.046134958825765564 -0.05947153651009232 -0.246076332604959 0.020934752602537653 -0.06954200715634265 -0.2545079389578053
          0.006565241166722302 -0.08182801240015192 -0.2272168437848885 0.010699692706875819 -0.07848758243143582 -0.18112469377530638
          0.014031251579558035 -0.03773752732363106 -0.13117984648837244 0.003898839618518196 0.026321457000283273 -0.12879912148454659
          -0.009213860087534193 0.061711011222242984 -0.1747610457160202 -0.009723998555535712 0.0622759569839991 -0.21295864030165848
          0.006768177811759646 0.05185765372513318 -0.22081579531277584 0.005266166072848809 0.032906322270462446 -0.18129105456280997
          -0.02539965986357061 0.02049057096795384 -0.17880400632658472 -0.03898252707132202 0.0270101356922178 -0.2125754858294593
          -0.034032453724406 0.031100862189983244 -0.20517724564121975 -0.036121860469547545 0.026749136716831916 -0.18895205749976965
          -0.039104833692394037 0.020911649457725626 -0.17045996921717227 -0.018978772550989426 -0.00014686372648348156 -0.13568418478261393
          0.027139644788011646 -0.037188514197860706 -0.14518621460683362 0.05589617445052679 -0.05724039821822957 -0.20378412250485678
          0.07114737271532216 -0.1740237717166176 -0.18544180469600952 0.05958705784038809 -0.15148320468335275 -0.15779799724388838
          0.011699615283895876 0.14339736194281896 -0.16288411079701418 0.05546957474410211 0.1682749777012619 -0.19242261705302593
          -0.16622750478620296 0.036907711992999775 -0.13491315920675817 -0.13689048625338646 0.089326662848079 -0.18999917929054966
          -0.08167130573345908 0.06938817051031536 -0.1505916179511038 -0.08035363973909894 0.02656516807520497 -0.1372667979717371
          -0.09680963070886596 0.019954862239614495 -0.13950774223183066 0.08633760988668956 -0.14567834409790928 -0.13999126731641123
          0.08563812381698195 -0.17038090275193551 -0.18134236738375617 0.02448439658189671 0.014579289069477024 0.03915463393892753
          0.00524112186226388 0.015048514816139353 0.04371979270857204 -0.016940240549358405 0.008401241459641133 0.04256054011712132
          -0.026028773521823353 -0.019573570175155222 0.035180612542871595 0.027978429848167022 -0.0016639542440201917 0.0395914001260754
          -0.008454640183088669 -0.015185270039059237 0.04374358939658354 0.10366958319464342 -0.039458758898783655 0.09610068831769722
          -0.032606196009492425 -0.0013547994809917502 0.03575173034149334 0.011854806375631445 -0.008438479561573935 0.04499176086514413
          -0.00916321305004876 -0.11393575226400066 0.0809095919058542 0.011487919203729643 0.12033017231378379 -0.12627024620963098
          0.035786333842797724 0.007953126617830424 0.03225780675153139 -0.056176263905833065 0.12365190889922711 0.1229537214096938
          <InformationKey name="L2_NORM_RANGE" location="vtkDataArray" length="2">
            <Value index="0">
              0.046533293791
            </Value>
            <Value index="1">
              0.26466704672
            </Value>
          </InformationKey>
        </DataArray>
      </CellData>
      <Points>
        <DataArray type="Float64" Name="Points" NumberOfComponents="3" format="ascii" RangeMin="0.9999999999999998" RangeMax="1.1">
          0.27767678217960773 -0.8230485991259203 0.49546605142556316 0.3054444603975685 -0.9053534590385124 0.5450126565681195
          -0.12254974924730225 -0.9790943660694095 0.4861643562526612 -0.11140886295209296 -0.8900857873358268 0.44196759659332835
          0.3420201433256693 -0.9396926207859082 0 0.37622215765823624 -1.033661882864499 0
          0 -1.1 0 0 -1 0
          0.6273795323467433 -0.6177665327548032 0.4740880017470285 0.6901174855814176 -0.6795431860302835 0.5214968019217313
          0.3054444603975685 -0.9053534590385124 0.5450126565681195 0.27767678217960773 -0.8230485991259203 0.49546605142556316
          0.6427876096865395 -0.7660444431189779 0 0.7070663706551934 -0.8426488874308757 0
          0.37622215765823624 -1.033661882864499 0 0.3420201433256693 -0.9396926207859082 0
          0.8564230385843402 -0.3365521488397867 0.3914999745763563 0.9420653424427743 -0.37020736372376534 0.43064997203399197
          0.6901174855814176 -0.6795431860302835 0.5214968019217313 0.6273795323467433 -0.6177665327548032 0.4740880017470285
          0.8660254037844386 -0.5 0 0.9526279441628824 -0.55 0
          0.7070663706551934 -0.8426488874308757 0 0.6427876096865395 -0.7660444431189779 0
          0.9536493840908751 -0.03809571480262589 0.2984988588533823 1.0490143224999626 -0.04190528628288848 0.3283487447387205
          0.9420653424427743 -0.37020736372376534 0.43064997203399197 0.8564230385843402 -0.3365521488397867 0.3914999745763563
          0.9848077530122081 -0.17364817766692997 0 1.083288528313429 -0.19101299543362296 0
          0.9526279441628824 -0.55 0 0.8660254037844386 -0.5 0
          0.962513734963796 0.1818577236545541 0.20123388967375083 1.0587651084601757 0.2000434960200095 0.22135727864112592
          1.0490143224999626 -0.04190528628288848 0.3283487447387205 0.9536493840908751 -0.03809571480262589 0.2984988588533823
          0.9848077530122079 0.1736481776669303 0 1.0832885283134286 0.19101299543362332 0
          1.083288528313429 -0.19101299543362296 0 0.9848077530122081 -0.17364817766692997 0
          0.8734666994765904 0.39151823686844034 0.289429430267379 0.9608133694242494 0.4306700605552844 0.3183723732941169
          1.0587651084601757 0.2000434960200095 0.22135727864112592 0.962513734963796 0.1818577236545541 0.20123388967375083
          0.8660254037844384 0.5000000000000004 0 0.9526279441628822 0.5500000000000005 0
          1.0832885283134286 0.19101299543362332 0 0.9848077530122079 0.1736481776669303 0
          0.6704467333754698 0.6394366396896125 0.37632693436507886 0.7374914067130167 0.7033803036585737 0.41395962780158674
          0.9608133694242494 0.4306700605552844 0.3183723732941169 0.8734666994765904 0.39151823686844034 0.289429430267379
          0.6427876096865393 0.7660444431189781 0 0.7070663706551932 0.842648887430876 0
          0.9526279441628822 0.5500000000000005 0 0.8660254037844384 0.5000000000000004 0
          0.35140482365782666 0.8290586833238491 0.4349440763079059 0.3865453060236093 0.911964551656234 0.4784384839386965
          0.7374914067130167 0.7033803036585737 0.41395962780158674 0.6704467333754698 0.6394366396896125 0.37632693436507886
          0.34202014332566866 0.9396926207859084 0 0.3762221576582355 1.0336618828644992 0
          0.7070663706551932 0.842648887430876 0 0.6427876096865393 0.7660444431189781 0
          -0.03516821485314723 0.9130809708901235 0.4062589534550497 -0.03868503633846195 1.0043890679791359 0.4468848488005547
          0.3865453060236093 0.911964551656234 0.4784384839386965 0.35140482365782666 0.8290586833238491 0.4349440763079059
          -1.224646799147353e-16 1 0 -1.3471114790620883e-16 1.1 0
          0.3762221576582355 1.0336618828644992 0 0.34202014332566866 0.9396926207859084 0
          -0.32691351351194575 0.9012542317225943 0.28437363535565485 -0.3596048648631403 0.9913796548948538 0.3128109988912203
          -0.03868503633846195 1.0043890679791359 0.4468848488005547 -0.03516821485314723 0.9130809708901235 0.4062589534550497
          -0.3420201433256689 0.9396926207859082 0 -0.37622215765823575 1.033661882864499 0
          -1.3471114790620883e-16 1.1 0 -1.224646799147353e-16 1 0
          -0.5611336304961841 0.7264235142091343 0.3967844839837156 -0.6172469935458026 0.7990658656300478 0.4364629323820871
          -0.3596048648631403 0.9913796548948538 0.3128109988912203 -0.32691351351194575 0.9012542317225943 0.28437363535565485
          -0.6427876096865395 0.7660444431189779 0 -0.7070663706551934 0.8426488874308757 0
          -0.37622215765823575 1.033661882864499 0 -0.3420201433256689 0.9396926207859082 0
          -0.7991745179411864 0.4367251738918707 0.4130268906047008 -0.8790919697353051 0.4803976912810578 0.4543295796651709
          -0.6172469935458026 0.7990658656300478 0.4364629323820871 -0.5611336304961841 0.7264235142091343 0.3967844839837156
          -0.8660254037844388 0.4999999999999998 0 -0.9526279441628827 0.5499999999999997 0
          -0.7070663706551934 0.8426488874308757 0 -0.6427876096865395 0.7660444431189779 0
          -0.9220111960958185 0.11844352876559927 0.36860071183804105 -1.0142123157054004 0.1302878816421592 0.4054607830218452
          -0.8790919697353051 0.4803976912810578 0.4543295796651709 -0.7991745179411864 0.4367251738918707 0.4130268906047008
          -0.9848077530122079 0.1736481776669303 0 -1.0832885283134286 0.19101299543362332 0
          -0.9526279441628827 0.5499999999999997 0 -0.8660254037844388 0.4999999999999998 0
          -0.9099972224255587 -0.22034500197257814 0.3512166500658433 -1.0009969446681146 -0.24237950216983595 0.3863383150724276
          -1.0142123157054004 0.1302878816421592 0.4054607830218452 -0.9220111960958185 0.11844352876559927 0.36860071183804105
          -0.9848077530122079 -0.17364817766693041 0 -1.0832885283134286 -0.19101299543362346 0
          -1.0832885283134286 0.19101299543362332 0 -0.9848077530122079 0.1736481776669303 0
          -0.7918651393524437 -0.5329666021999737 0.29815466123767015 -0.8710516532876881 -0.5862632624199711 0.32797012736143716
          -1.0009969446681146 -0.24237950216983595 0.3863383150724276 -0.9099972224255587 -0.22034500197257814 0.3512166500658433
          -0.8660254037844386 -0.5 0 -0.9526279441628824 -0.55 0
          -1.0832885283134286 -0.19101299543362346 0 -0.9848077530122079 -0.17364817766693041 0
          -0.644647788210003 -0.7325183600562102 0.21873747126752574 -0.7091125670310033 -0.8057701960618312 0.24061121839427832
          -0.8710516532876881 -0.5862632624199711 0.32797012736143716 -0.7918651393524437 -0.5329666021999737 0.29815466123767015
          -0.6427876096865393 -0.7660444431189781 0 -0.7070663706551932 -0.842648887430876 0
          -0.9526279441628824 -0.55 0 -0.8660254037844386 -0.5 0
          -0.443549087804154 -0.8315481735711118 0.3343528700918404 -0.4879039965845694 -0.9147029909282229 0.3677881571010244
          -0.7091125670310033 -0.8057701960618312 0.24061121839427832 -0.644647788210003 -0.7325183600562102 0.21873747126752574
          -0.34202014332566866 -0.9396926207859084 0 -0.3762221576582355 -1.0336618828644992 0
          -0.7070663706551932 -0.842648887430876 0 -0.6427876096865393 -0.7660444431189781 0
          -0.11140886295209296 -0.8900857873358268 0.44196759659332835 -0.12254974924730225 -0.9790943660694095 0.4861643562526612
          -0.4879039965845694 -0.9147029909282229 0.3677881571010244 -0.443549087804154 -0.8315481735711118 0.3343528700918404
          0 -1 0 0 -1.1 0
          -0.3762221576582355 -1.0336618828644992 0 -0.34202014332566866 -0.9396926207859084 0
          0.5081602196164128 -0.2962161196927475 0.8087207191815794 0.558976241578054 -0.3258377316620223 0.8895927910997373
          0.13844433302243922 -0.5298164414514237 0.9540061346876769 0.12585848456585383 -0.48165131041038517 0.8672783042615245
          0.6273795323467433 -0.6177665327548032 0.4740880017470285 0.6901174855814176 -0.6795431860302835 0.5214968019217313
          0.3054444603975685 -0.9053534590385124 0.5450126565681195 0.27767678217960773 -0.8230485991259203 0.49546605142556316
          0.7486440357322399 -0.08102368691764139 0.6580024847375705 0.8235084393054639 -0.08912605560940554 0.7238027332113276
          0.558976241578054 -0.3258377316620223 0.8895927910997373 0.5081602196164128 -0.2962161196927475 0.8087207191815794
          0.8564230385843402 -0.3365521488397867 0.3914999745763563 0.9420653424427743 -0.37020736372376534 0.43064997203399197
          0.6901174855814176 -0.6795431860302835 0.5214968019217313 0.6273795323467433 -0.6177665327548032 0.4740880017470285
          0.3245552349870713 0.5270961526647022 0.7853875128167979 0.3570107584857784 0.5798057679311724 0.8639262640984776
          0.7179989949659505 0.4346358563851558 0.7110338357435791 0.652726359059955 0.3951235058046871 0.6463943961305265
          0.35140482365782666 0.8290586833238491 0.4349440763079059 0.3865453060236093 0.911964551656234 0.4784384839386965
          0.7374914067130167 0.7033803036585737 0.41395962780158674 0.6704467333754698 0.6394366396896125 0.37632693436507886
          -0.2196312918742094 0.5739959674492252 0.7888540581005422 -0.24159442106163034 0.6313955641941478 0.8677394639105964
          0.3570107584857784 0.5798057679311724 0.8639262640984776 0.3245552349870713 0.5270961526647022 0.7853875128167979
          -0.03516821485314723 0.9130809708901235 0.4062589534550497 -0.03868503633846195 1.0043890679791359 0.4468848488005547
          0.3865453060236093 0.911964551656234 0.4784384839386965 0.35140482365782666 0.8290586833238491 0.4349440763079059
          -0.2196312918742094 0.5739959674492252 0.7888540581005422 -0.24159442106163034 0.6313955641941478 0.8677394639105964
          -0.03868503633846195 1.0043890679791359 0.4468848488005547 -0.03516821485314723 0.9130809708901235 0.4062589534550497
          -0.5611336304961841 0.7264235142091343 0.3967844839837156 -0.6172469935458026 0.7990658656300478 0.4364629323820871
          -0.3596048648631403 0.9913796548948538 0.3128109988912203 -0.32691351351194575 0.9012542317225943 0.28437363535565485
          -0.6191892898835939 0.2488606717067169 0.7447637137852062 -0.6811082188719533 0.2737467388773886 0.8192400851637268
          -0.24159442106163034 0.6313955641941478 0.8677394639105964 -0.2196312918742094 0.5739959674492252 0.7888540581005422
          -0.7991745179411864 0.4367251738918707 0.4130268906047008 -0.8790919697353051 0.4803976912810578 0.4543295796651709
          -0.6172469935458026 0.7990658656300478 0.4364629323820871 -0.5611336304961841 0.7264235142091343 0.3967844839837156
          -0.7908676404069002 0.04197214329240888 0.6105462427569787 -0.8699544044475902 0.04616935762164977 0.6716008670326765
          -0.6811082188719533 0.2737467388773886 0.8192400851637268 -0.6191892898835939 0.2488606717067169 0.7447637137852062
          -0.9220111960958185 0.11844352876559927 0.36860071183804105 -1.0142123157054004 0.1302878816421592 0.4054607830218452
          -0.8790919697353051 0.4803976912810578 0.4543295796651709 -0.7991745179411864 0.4367251738918707 0.4130268906047008
          -0.7350316743464809 -0.24507425678588288 0.6321922542773328 -0.808534841781129 -0.2695816824644712 0.6954114797050661
          -0.8699544044475902 0.04616935762164977 0.6716008670326765 -0.7908676404069002 0.04197214329240888 0.6105462427569787
          -0.9099972224255587 -0.22034500197257814 0.3512166500658433 -1.0009969446681146 -0.24237950216983595 0.3863383150724276
          -1.0142123157054004 0.1302878816421592 0.4054607830218452 -0.9220111960958185 0.11844352876559927 0.36860071183804105
          -0.5980320942548893 -0.584255870204248 0.5486371226712498 -0.6578353036803782 -0.6426814572246727 0.6035008349383747
          -0.808534841781129 -0.2695816824644712 0.6954114797050661 -0.7350316743464809 -0.24507425678588288 0.6321922542773328
          -0.7918651393524437 -0.5329666021999737 0.29815466123767015 -0.8710516532876881 -0.5862632624199711 0.32797012736143716
          -1.0009969446681146 -0.24237950216983595 0.3863383150724276 -0.9099972224255587 -0.22034500197257814 0.3512166500658433
          -0.2858310370220798 -0.5824129703297029 0.7609834099812 -0.31441414072428775 -0.6406542673626732 0.8370817509793199
          -0.6578353036803782 -0.6426814572246727 0.6035008349383747 -0.5980320942548893 -0.584255870204248 0.5486371226712498
          -0.11140886295209296 -0.8900857873358268 0.44196759659332835 -0.12254974924730225 -0.9790943660694095 0.4861643562526612
          -0.4879039965845694 -0.9147029909282229 0.3677881571010244 -0.443549087804154 -0.8315481735711118 0.3343528700918404
          0.12585848456585383 -0.48165131041038517 0.8672783042615245 0.13844433302243922 -0.5298164414514237 0.9540061346876769
          -0.31441414072428775 -0.6406542673626732 0.8370817509793199 -0.2858310370220798 -0.5824129703297029 0.7609834099812
          0.27767678217960773 -0.8230485991259203 0.49546605142556316 0.3054444603975685 -0.9053534590385124 0.5450126565681195
          -0.12254974924730225 -0.9790943660694095 0.4861643562526612 -0.11140886295209296 -0.8900857873358268 0.44196759659332835
          0.652726359059955 0.3951235058046871 0.6463943961305265 0.3245552349870713 0.5270961526647022 0.7853875128167979
          0.3673573919366997 0.09940387086928901 0.9247526247844164 0.6141127405680087 0.14471959621948408 0.7758361813824611
          0.7179989949659505 0.4346358563851558 0.7110338357435791 0.3570107584857784 0.5798057679311724 0.8639262640984776
          0.40409313113036965 0.10934425795621791 1.0172278872628582 0.6755240146248096 0.1591915558414325 0.8534197995207072
          0.3245552349870713 0.5270961526647022 0.7853875128167979 -0.2196312918742094 0.5739959674492252 0.7888540581005422
          -0.05299158606845067 0.00338519430793069 0.9985892209840077 0.3673573919366997 0.09940387086928901 0.9247526247844164
          0.3570107584857784 0.5798057679311724 0.8639262640984776 -0.24159442106163034 0.6313955641941478 0.8677394639105964
          -0.058290744675295735 0.003723713738723759 1.0984481430824085 0.40409313113036965 0.10934425795621791 1.0172278872628582
          -0.2196312918742094 0.5739959674492252 0.7888540581005422 -0.6191892898835939 0.2488606717067169 0.7447637137852062
          -0.4634070761224176 -0.154142516692583 0.8726362164999506 -0.05299158606845067 0.00338519430793069 0.9985892209840077
          -0.24159442106163034 0.6313955641941478 0.8677394639105964 -0.6811082188719533 0.2737467388773886 0.8192400851637268
          -0.5097477837346593 -0.1695567683618413 0.9598998381499457 -0.058290744675295735 0.003723713738723759 1.0984481430824085
          -0.7350316743464809 -0.24507425678588288 0.6321922542773328 -0.5980320942548893 -0.584255870204248 0.5486371226712498
          -0.2858310370220798 -0.5824129703297029 0.7609834099812 -0.4634070761224176 -0.154142516692583 0.8726362164999506
          -0.808534841781129 -0.2695816824644712 0.6954114797050661 -0.6578353036803782 -0.6426814572246727 0.6035008349383747
          -0.31441414072428775 -0.6406542673626732 0.8370817509793199 -0.5097477837346593 -0.1695567683618413 0.9598998381499457
          0.6141127405680087 0.14471959621948408 0.7758361813824611 0.3673573919366997 0.09940387086928901 0.9247526247844164
          0.5081602196164128 -0.2962161196927475 0.8087207191815794 0.7486440357322399 -0.08102368691764139 0.6580024847375705
          0.6755240146248096 0.1591915558414325 0.8534197995207072 0.40409313113036965 0.10934425795621791 1.0172278872628582
          0.558976241578054 -0.3258377316620223 0.8895927910997373 0.8235084393054639 -0.08912605560940554 0.7238027332113276
          -0.4634070761224176 -0.154142516692583 0.8726362164999506 -0.2858310370220798 -0.5824129703297029 0.7609834099812
          0.12585848456585383 -0.48165131041038517 0.8672783042615245 -0.05299158606845067 0.00338519430793069 0.9985892209840077
          -0.5097477837346593 -0.1695567683618413 0.9598998381499457 -0.31441414072428775 -0.6406542673626732 0.8370817509793199
          0.13844433302243922 -0.5298164414514237 0.9540061346876769 -0.058290744675295735 0.003723713738723759 1.0984481430824085
          -0.8710516532876881 -0.5862632624199711 0.32797012736143716 -0.7091125670310033 -0.8057701960618312 0.24061121839427832
          -0.644647788210003 -0.7325183600562102 0.21873747126752574 -0.7918651393524437 -0.5329666021999737 0.29815466123767015
          -0.6578353036803782 -0.6426814572246727 0.6035008349383747 -0.4879039965845694 -0.9147029909282229 0.3677881571010244
          -0.443549087804154 -0.8315481735711118 0.3343528700918404 -0.5980320942548893 -0.584255870204248 0.5486371226712498
          -0.4634070761224176 -0.154142516692583 0.8726362164999506 -0.6191892898835939 0.2488606717067169 0.7447637137852062
          -0.7908676404069002 0.04197214329240888 0.6105462427569787 -0.7350316743464809 -0.24507425678588288 0.6321922542773328
          -0.5097477837346593 -0.1695567683618413 0.9598998381499457 -0.6811082188719533 0.2737467388773886 0.8192400851637268
          -0.8699544044475902 0.04616935762164977 0.6716008670326765 -0.808534841781129 -0.2695816824644712 0.6954114797050661
          -0.05299158606845067 0.00338519430793069 0.9985892209840077 0.12585848456585383 -0.48165131041038517 0.8672783042615245
          0.5081602196164128 -0.2962161196927475 0.8087207191815794 0.3673573919366997 0.09940387086928901 0.9247526247844164
          -0.058290744675295735 0.003723713738723759 1.0984481430824085 0.13844433302243922 -0.5298164414514237 0.9540061346876769
          0.558976241578054 -0.3258377316620223 0.8895927910997373 0.40409313113036965 0.10934425795621791 1.0172278872628582
          0.962513734963796 0.1818577236545541 0.20123388967375083 1.0587651084601757 0.2000434960200095 0.22135727864112592
          0.9608133694242494 0.4306700605552844 0.3183723732941169 0.8734666994765904 0.39151823686844034 0.289429430267379
          0.9536493840908751 -0.03809571480262589 0.2984988588533823 1.0490143224999626 -0.04190528628288848 0.3283487447387205
          0.9321659292699724 0.19517378575189398 0.5504306256591495 0.8474235720636113 0.17743071431990362 0.500391477871954
          0.7179989949659505 0.4346358563851558 0.7110338357435791 0.9321659292699724 0.19517378575189398 0.5504306256591495
          0.8474235720636113 0.17743071431990362 0.500391477871954 0.652726359059955 0.3951235058046871 0.6463943961305265
          0.7374914067130167 0.7033803036585737 0.41395962780158674 0.9608133694242494 0.4306700605552844 0.3183723732941169
          0.8734666994765904 0.39151823686844034 0.289429430267379 0.6704467333754698 0.6394366396896125 0.37632693436507886
          0.8474235720636113 0.17743071431990362 0.500391477871954 0.652726359059955 0.3951235058046871 0.6463943961305265
          0.6141127405680087 0.14471959621948408 0.7758361813824611 0.7486440357322399 -0.08102368691764139 0.6580024847375705
          0.9321659292699724 0.19517378575189398 0.5504306256591495 0.7179989949659505 0.4346358563851558 0.7110338357435791
          0.6755240146248096 0.1591915558414325 0.8534197995207072 0.8235084393054639 -0.08912605560940554 0.7238027332113276
          0.8564230385843402 -0.3365521488397867 0.3914999745763563 0.9420653424427743 -0.37020736372376534 0.43064997203399197
          1.0490143224999626 -0.04190528628288848 0.3283487447387205 0.9536493840908751 -0.03809571480262589 0.2984988588533823
          0.7486440357322399 -0.08102368691764139 0.6580024847375705 0.8235084393054639 -0.08912605560940554 0.7238027332113276
          0.9321659292699724 0.19517378575189398 0.5504306256591495 0.8474235720636113 0.17743071431990362 0.500391477871954
          <InformationKey name="L2_NORM_RANGE" location="vtkDataArray" length="2">
            <Value index="0">
              1
            </Value>
            <Value index="1">
              1.1
            </Value>
          </InformationKey>
        </DataArray>
      </Points>
      <Cells>
        <DataArray type="Int64" Name="connectivity" format="ascii" RangeMin="0" RangeMax="335">
          0 1 2 3 4 5
          6 7 8 9 10 11
          12 13 14 15 16 17
          18 19 20 21 22 23
          24 25 26 27 28 29
          30 31 32 33 34 35
          36 37 38 39 40 41
          42 43 44 45 46 47
          48 49 50 51 52 53
          54 55 56 57 58 59
          60 61 62 63 64 65
          66 67 68 69 70 71
          72 73 74 75 76 77
          78 79 80 81 82 83
          84 85 86 87 88 89
          90 91 92 93 94 95
          96 97 98 99 100 101
          102 103 104 105 106 107
          108 109 110 111 112 113
          114 115 116 117 118 119
          120 121 122 123 124 125
          126 127 128 129 130 131
          132 133 134 135 136 137
          138 139 140 141 142 143
          144 145 146 147 148 149
          150 151 152 153 154 155
          156 157 158 159 160 161
          162 163 164 165 166 167
          168 169 170 171 172 173
          174 175 176 177 178 179
          180 181 182 183 184 185
          186 187 188 189 190 191
          192 193 194 195 196 197
          198 199 200 201 202 203
          204 205 206 207 208 209
          210 211 212 213 214 215
          216 217 218 219 220 221
          222 223 224 225 226 227
          228 229 230 231 232 233
          234 235 236 237 238 239
          240 241 242 243 244 245
          246 247 248 249 250 251
          252 253 254 255 256 257
          258 259 260 261 262 263
          264 265 266 267 268 269
          270 271 272 273 274 275
          276 277 278 279 280 281
          282 283 284 285 286 287
          288 289 290 291 292 293
          294 295 296 297 298 299
          300 301 302 303 304 305
          306 307 308 309 310 311
          312 313 314 315 316 317
          318 319 320 321 322 323
          324 325 326 327 328 329
          330 331 332 333 334 335
        </DataArray>
        <DataArray type="Int64" Name="offsets" format="ascii" RangeMin="8" RangeMax="336">
          8 16 24 32 40 48
          56 64 72 80 88 96
          104 112 120 128 136 144
          152 160 168 176 184 192
          200 208 216 224 232 240
          248 256 264 272 280 288
          296 304 312 320 328 336
        </DataArray>
        <DataArray type="UInt8" Name="types" format="ascii" RangeMin="12" RangeMax="12">
          12 12 12 12 12 12
          12 12 12 12 12 12
          12 12 12 12 12 12
          12 12 12 12 12 12
          12 12 12 12 12 12
          12 12 12 12 12 12
          12 12 12 12 12 12
        </DataArray>
      </Cells>
    </Piece>
  </UnstructuredGrid>
</VTKFile>
