<?xml version="1.0"?>
<VTKFile type="UnstructuredGrid" version="0.1" byte_order="LittleEndian" header_type="UInt32" compressor="vtkZLibDataCompressor">
  <UnstructuredGrid>
    <Piece NumberOfPoints="132" NumberOfCells="44">
      <PointData>
        <DataArray type="Float64" Name="node_value" format="ascii" RangeMin="0.5" RangeMax="1">
          1 0.5 1 1 0.5 1
          1 0.5 1 1 0.5 1
          1 0.5 1 1 0.5 1
          1 0.5 1 1 0.5 1
          1 0.5 1 1 0.5 1
          1 0.5 1 1 0.5 1
          1 0.5 1 1 0.5 1
          1 0.5 1 1 0.5 1
          1 0.5 1 1 0.5 1
          1 0.5 1 1 0.5 1
          1 0.5 1 1 0.5 1
          1 0.5 1 1 0.5 1
          1 0.5 1 1 0.5 1
          1 0.5 1 1 0.5 1
          1 0.5 1 1 0.5 1
          1 0.5 1 1 0.5 1
          1 0.5 1 1 0.5 1
          1 0.5 1 1 0.5 1
          1 0.5 1 1 0.5 1
          1 0.5 1 1 0.5 1
          1 0.5 1 1 0.5 1
          1 0.5 1 1 0.5 1
        </DataArray>
        <DataArray type="Int32" Name="geometry_point_set_03" format="ascii" RangeMin="-1" RangeMax="1">
          1 -1 -1 -1 -1 -1
          -1 -1 -1 -1 -1 -1
          1 -1 -1 -1 -1 -1
          -1 -1 -1 -1 -1 -1
          -1 -1 -1 -1 -1 1
          -1 -1 -1 -1 -1 -1
          -1 -1 -1 -1 -1 -1
          -1 -1 -1 -1 -1 -1
          -1 -1 -1 -1 -1 -1
          -1 -1 -1 -1 -1 -1
          -1 -1 -1 -1 -1 -1
          -1 -1 -1 -1 -1 -1
          -1 -1 -1 -1 -1 -1
          -1 -1 -1 -1 -1 -1
          -1 -1 -1 -1 -1 -1
          -1 -1 -1 -1 -1 -1
          -1 -1 -1 -1 -1 -1
          -1 -1 -1 -1 -1 -1
          -1 -1 -1 -1 -1 -1
          -1 -1 -1 -1 -1 -1
          -1 -1 -1 -1 -1 -1
          -1 -1 -1 -1 -1 -1
        </DataArray>
        <DataArray type="Int32" Name="geometry_line_set_01" format="ascii" RangeMin="1" RangeMax="1">
          1 1 1 1 1 1
          1 1 1 1 1 1
          1 1 1 1 1 1
          1 1 1 1 1 1
          1 1 1 1 1 1
          1 1 1 1 1 1
          1 1 1 1 1 1
          1 1 1 1 1 1
          1 1 1 1 1 1
          1 1 1 1 1 1
          1 1 1 1 1 1
          1 1 1 1 1 1
          1 1 1 1 1 1
          1 1 1 1 1 1
          1 1 1 1 1 1
          1 1 1 1 1 1
          1 1 1 1 1 1
          1 1 1 1 1 1
          1 1 1 1 1 1
          1 1 1 1 1 1
          1 1 1 1 1 1
          1 1 1 1 1 1
        </DataArray>
        <DataArray type="Int32" Name="geometry_point_set_02" format="ascii" RangeMin="-1" RangeMax="1">
          -1 -1 -1 -1 -1 1
          1 -1 -1 -1 -1 -1
          -1 -1 -1 -1 -1 -1
          -1 -1 -1 -1 -1 1
          1 -1 -1 -1 -1 -1
          -1 -1 -1 -1 -1 -1
          -1 -1 -1 -1 -1 -1
          -1 -1 -1 -1 -1 -1
          -1 -1 -1 -1 -1 -1
          -1 -1 -1 -1 -1 -1
          -1 -1 -1 -1 -1 -1
          -1 -1 -1 -1 -1 -1
          -1 -1 -1 -1 -1 -1
          -1 -1 -1 -1 -1 -1
          -1 -1 -1 -1 -1 -1
          -1 -1 -1 -1 -1 -1
          -1 -1 -1 -1 -1 -1
          -1 -1 -1 -1 -1 -1
          -1 -1 -1 -1 -1 -1
          -1 -1 -1 -1 -1 -1
          -1 -1 -1 -1 -1 -1
          -1 -1 -1 -1 -1 -1
        </DataArray>
        <DataArray type="Int32" Name="geometry_point_set_04" format="ascii" RangeMin="-1" RangeMax="1">
          -1 -1 -1 -1 -1 1
          1 -1 -1 -1 -1 -1
          -1 -1 -1 -1 -1 -1
          -1 -1 -1 -1 -1 -1
          -1 -1 -1 -1 -1 -1
          -1 -1 -1 -1 -1 -1
          -1 -1 -1 -1 -1 -1
          -1 -1 -1 -1 -1 -1
          -1 -1 -1 -1 -1 -1
          -1 -1 -1 -1 -1 -1
          -1 -1 -1 -1 -1 -1
          -1 -1 -1 -1 -1 -1
          -1 -1 -1 -1 -1 -1
          -1 -1 -1 -1 -1 -1
          -1 -1 -1 -1 -1 -1
          -1 -1 -1 -1 -1 -1
          -1 -1 -1 -1 -1 -1
          -1 -1 -1 -1 -1 -1
          -1 -1 -1 -1 -1 -1
          -1 -1 -1 -1 -1 -1
          -1 -1 -1 -1 -1 -1
          -1 -1 -1 -1 -1 -1
        </DataArray>
        <DataArray type="Int32" Name="geometry_point_set_05" format="ascii" RangeMin="-1" RangeMax="1">
          -1 -1 -1 -1 -1 -1
          -1 -1 -1 -1 -1 1
          -1 -1 -1 -1 -1 -1
          1 -1 -1 -1 -1 -1
          -1 -1 -1 -1 -1 -1
          1 -1 -1 -1 -1 -1
          -1 -1 -1 -1 -1 -1
          -1 -1 -1 -1 -1 -1
          -1 -1 -1 -1 -1 -1
          -1 -1 -1 -1 -1 -1
          -1 -1 -1 -1 -1 -1
          -1 -1 -1 -1 -1 -1
          -1 -1 -1 -1 -1 -1
          -1 -1 -1 -1 -1 -1
          -1 -1 -1 -1 -1 -1
          -1 -1 -1 -1 -1 -1
          -1 -1 -1 -1 -1 -1
          -1 -1 -1 -1 -1 -1
          -1 -1 -1 -1 -1 -1
          -1 -1 -1 -1 -1 -1
          -1 -1 -1 -1 -1 -1
          -1 -1 -1 -1 -1 -1
        </DataArray>
        <DataArray type="Int32" Name="geometry_point_set_06" format="ascii" RangeMin="-1" RangeMax="1">
          -1 -1 -1 -1 -1 -1
          -1 -1 -1 -1 -1 -1
          -1 -1 -1 -1 -1 1
          -1 -1 -1 -1 -1 -1
          -1 -1 -1 -1 -1 -1
          -1 -1 -1 -1 -1 -1
          1 -1 -1 -1 -1 -1
          -1 -1 -1 -1 -1 -1
          -1 -1 -1 -1 -1 -1
          -1 -1 -1 -1 -1 -1
          -1 -1 -1 -1 -1 1
          -1 -1 -1 -1 -1 -1
          -1 -1 -1 -1 -1 -1
          -1 -1 -1 -1 -1 -1
          -1 -1 -1 -1 -1 -1
          -1 -1 -1 -1 -1 -1
          -1 -1 -1 -1 -1 -1
          -1 -1 -1 -1 -1 -1
          -1 -1 -1 -1 -1 -1
          -1 -1 -1 -1 -1 -1
          -1 -1 -1 -1 -1 -1
          -1 -1 -1 -1 -1 -1
        </DataArray>
        <DataArray type="Int32" Name="geometry_point_set_07" format="ascii" RangeMin="-1" RangeMax="1">
          -1 -1 -1 -1 -1 -1
          -1 -1 -1 -1 -1 -1
          -1 -1 -1 -1 -1 -1
          -1 -1 -1 -1 -1 1
          1 -1 -1 -1 -1 -1
          -1 -1 -1 -1 -1 -1
          -1 -1 -1 -1 -1 -1
          -1 -1 -1 -1 -1 -1
          -1 -1 -1 -1 -1 -1
          -1 -1 -1 -1 -1 -1
          -1 -1 -1 -1 -1 -1
          -1 -1 -1 -1 -1 -1
          -1 -1 -1 -1 -1 -1
          -1 -1 -1 -1 -1 -1
          -1 -1 -1 -1 -1 -1
          -1 -1 -1 -1 -1 -1
          -1 -1 -1 -1 -1 -1
          -1 -1 -1 -1 -1 -1
          -1 -1 -1 -1 -1 -1
          -1 -1 -1 -1 -1 -1
          -1 -1 -1 -1 -1 -1
          -1 -1 -1 -1 -1 -1
        </DataArray>
        <DataArray type="Int32" Name="geometry_point_set_08" format="ascii" RangeMin="-1" RangeMax="1">
          -1 -1 -1 -1 -1 -1
          -1 -1 -1 -1 -1 -1
          -1 -1 -1 -1 -1 -1
          -1 -1 -1 -1 -1 -1
          -1 -1 -1 -1 -1 -1
          -1 -1 -1 -1 -1 1
          -1 -1 -1 -1 -1 -1
          -1 -1 -1 -1 -1 1
          -1 -1 -1 -1 -1 -1
          1 -1 -1 -1 -1 -1
          -1 -1 -1 -1 -1 -1
          -1 -1 -1 -1 -1 -1
          -1 -1 -1 -1 -1 -1
          -1 -1 -1 -1 -1 -1
          -1 -1 -1 -1 -1 -1
          -1 -1 -1 -1 -1 -1
          -1 -1 -1 -1 -1 -1
          -1 -1 -1 -1 -1 -1
          -1 -1 -1 -1 -1 -1
          -1 -1 -1 -1 -1 -1
          -1 -1 -1 -1 -1 -1
          -1 -1 -1 -1 -1 -1
        </DataArray>
        <DataArray type="Int32" Name="geometry_point_set_09" format="ascii" RangeMin="-1" RangeMax="1">
          -1 -1 -1 -1 -1 -1
          -1 -1 -1 -1 -1 -1
          -1 -1 -1 -1 -1 -1
          -1 -1 -1 -1 -1 -1
          -1 -1 -1 -1 -1 -1
          -1 -1 -1 -1 -1 -1
          -1 -1 -1 -1 -1 1
          1 -1 -1 -1 -1 -1
          1 -1 -1 -1 -1 -1
          -1 -1 -1 -1 -1 -1
          -1 -1 -1 -1 -1 -1
          -1 -1 -1 -1 -1 -1
          -1 -1 -1 -1 -1 -1
          -1 -1 -1 -1 -1 -1
          -1 -1 -1 -1 -1 -1
          -1 -1 -1 -1 -1 -1
          -1 -1 -1 -1 -1 -1
          -1 -1 -1 -1 -1 -1
          -1 -1 -1 -1 -1 -1
          -1 -1 -1 -1 -1 -1
          -1 -1 -1 -1 -1 -1
          -1 -1 -1 -1 -1 -1
        </DataArray>
        <DataArray type="Int32" Name="geometry_point_set_10" format="ascii" RangeMin="-1" RangeMax="1">
          -1 -1 -1 -1 -1 -1
          -1 -1 -1 -1 -1 -1
          -1 -1 -1 -1 -1 -1
          -1 -1 -1 -1 -1 -1
          -1 -1 -1 -1 -1 -1
          -1 -1 -1 -1 -1 -1
          -1 -1 -1 -1 -1 -1
          -1 -1 -1 -1 -1 -1
          -1 -1 -1 -1 -1 1
          -1 -1 -1 -1 -1 -1
          -1 -1 -1 -1 -1 -1
          -1 -1 -1 -1 -1 -1
          -1 -1 -1 -1 -1 1
          1 -1 -1 -1 -1 -1
          -1 -1 -1 -1 -1 -1
          -1 -1 -1 -1 -1 -1
          -1 -1 -1 -1 -1 -1
          -1 -1 -1 -1 -1 -1
          -1 -1 -1 -1 -1 -1
          -1 -1 -1 -1 -1 -1
          -1 -1 -1 -1 -1 -1
          -1 -1 -1 -1 -1 -1
        </DataArray>
        <DataArray type="Int32" Name="geometry_point_set_11" format="ascii" RangeMin="-1" RangeMax="1">
          -1 -1 -1 -1 -1 -1
          -1 -1 -1 -1 -1 -1
          -1 -1 -1 -1 -1 -1
          -1 -1 -1 -1 -1 -1
          -1 -1 -1 -1 -1 -1
          -1 -1 -1 -1 -1 -1
          -1 -1 -1 -1 -1 -1
          -1 -1 -1 -1 -1 -1
          -1 -1 -1 -1 -1 -1
          -1 -1 -1 -1 -1 1
          1 -1 -1 -1 -1 -1
          1 -1 -1 -1 -1 -1
          -1 -1 -1 -1 -1 -1
          -1 -1 -1 -1 -1 -1
          -1 -1 -1 -1 -1 -1
          -1 -1 -1 -1 -1 -1
          -1 -1 -1 -1 -1 -1
          -1 -1 -1 -1 -1 -1
          -1 -1 -1 -1 -1 -1
          -1 -1 -1 -1 -1 -1
          -1 -1 -1 -1 -1 -1
          -1 -1 -1 -1 -1 -1
        </DataArray>
        <DataArray type="Int32" Name="geometry_point_set_12" format="ascii" RangeMin="-1" RangeMax="1">
          -1 -1 -1 -1 -1 -1
          -1 -1 -1 -1 -1 -1
          -1 -1 -1 -1 -1 -1
          -1 -1 -1 -1 -1 -1
          -1 -1 -1 -1 -1 -1
          -1 -1 -1 -1 -1 -1
          -1 -1 -1 -1 -1 -1
          -1 -1 -1 -1 -1 -1
          -1 -1 -1 -1 -1 -1
          -1 -1 -1 -1 -1 -1
          -1 -1 -1 -1 -1 -1
          -1 -1 -1 -1 -1 1
          -1 -1 -1 -1 -1 -1
          -1 -1 -1 -1 -1 -1
          -1 -1 -1 -1 -1 -1
          -1 -1 -1 -1 -1 1
          1 -1 -1 -1 -1 -1
          -1 -1 -1 -1 -1 -1
          -1 -1 -1 -1 -1 -1
          -1 -1 -1 -1 -1 -1
          -1 -1 -1 -1 -1 -1
          -1 -1 -1 -1 -1 -1
        </DataArray>
        <DataArray type="Int32" Name="geometry_point_set_13" format="ascii" RangeMin="-1" RangeMax="1">
          -1 -1 -1 -1 -1 -1
          -1 -1 -1 -1 -1 -1
          -1 -1 -1 -1 -1 -1
          -1 -1 -1 -1 -1 -1
          -1 -1 -1 -1 -1 -1
          -1 -1 -1 -1 -1 -1
          -1 -1 -1 -1 -1 -1
          -1 -1 -1 -1 -1 -1
          -1 -1 -1 -1 -1 -1
          -1 -1 -1 -1 -1 -1
          -1 -1 -1 -1 -1 -1
          -1 -1 -1 -1 -1 -1
          1 -1 -1 -1 -1 -1
          -1 -1 -1 -1 -1 -1
          1 -1 -1 -1 -1 -1
          -1 -1 -1 -1 -1 -1
          -1 -1 -1 -1 -1 1
          -1 -1 -1 -1 -1 -1
          -1 -1 -1 -1 -1 -1
          -1 -1 -1 -1 -1 -1
          -1 -1 -1 -1 -1 -1
          -1 -1 -1 -1 -1 -1
        </DataArray>
        <DataArray type="Int32" Name="geometry_point_set_14" format="ascii" RangeMin="-1" RangeMax="1">
          -1 -1 -1 -1 -1 -1
          -1 -1 -1 -1 -1 -1
          -1 -1 -1 -1 -1 -1
          -1 -1 -1 -1 -1 -1
          -1 -1 -1 -1 -1 -1
          -1 -1 -1 -1 -1 -1
          -1 -1 -1 -1 -1 -1
          -1 -1 -1 -1 -1 -1
          -1 -1 -1 -1 -1 -1
          -1 -1 -1 -1 -1 -1
          -1 -1 -1 -1 -1 -1
          -1 -1 -1 -1 -1 -1
          -1 -1 -1 -1 -1 -1
          -1 -1 -1 -1 -1 1
          -1 -1 -1 -1 -1 -1
          1 -1 -1 -1 -1 -1
          -1 -1 -1 -1 -1 -1
          1 -1 -1 -1 -1 -1
          -1 -1 -1 -1 -1 -1
          -1 -1 -1 -1 -1 -1
          -1 -1 -1 -1 -1 -1
          -1 -1 -1 -1 -1 -1
        </DataArray>
        <DataArray type="Int32" Name="geometry_point_set_15" format="ascii" RangeMin="-1" RangeMax="1">
          -1 -1 -1 -1 -1 -1
          -1 -1 -1 -1 -1 -1
          -1 -1 -1 -1 -1 -1
          -1 -1 -1 -1 -1 -1
          -1 -1 -1 -1 -1 -1
          -1 -1 -1 -1 -1 -1
          -1 -1 -1 -1 -1 -1
          -1 -1 -1 -1 -1 -1
          -1 -1 -1 -1 -1 -1
          -1 -1 -1 -1 -1 -1
          -1 -1 -1 -1 -1 -1
          -1 -1 -1 -1 -1 -1
          -1 -1 -1 -1 -1 -1
          -1 -1 -1 -1 -1 -1
          -1 -1 -1 -1 -1 1
          -1 -1 -1 -1 -1 -1
          -1 -1 -1 -1 -1 -1
          -1 -1 -1 -1 -1 -1
          1 -1 -1 -1 -1 -1
          -1 -1 -1 -1 -1 -1
          -1 -1 -1 -1 -1 -1
          -1 -1 -1 -1 -1 1
        </DataArray>
        <DataArray type="Int32" Name="geometry_point_set_16" format="ascii" RangeMin="-1" RangeMax="1">
          -1 -1 -1 -1 -1 -1
          -1 -1 -1 -1 -1 -1
          -1 -1 -1 -1 -1 -1
          -1 -1 -1 -1 -1 -1
          -1 -1 -1 -1 -1 -1
          -1 -1 -1 -1 -1 -1
          -1 -1 -1 -1 -1 -1
          -1 -1 -1 -1 -1 -1
          -1 -1 -1 -1 -1 -1
          -1 -1 -1 -1 -1 -1
          -1 -1 -1 -1 -1 -1
          -1 -1 -1 -1 -1 -1
          -1 -1 -1 -1 -1 -1
          -1 -1 -1 -1 -1 -1
          -1 -1 -1 -1 -1 -1
          -1 -1 -1 -1 -1 -1
          -1 -1 -1 -1 -1 -1
          -1 -1 -1 -1 -1 1
          -1 -1 -1 -1 -1 -1
          -1 -1 -1 -1 -1 1
          1 -1 -1 -1 -1 -1
          -1 -1 -1 -1 -1 -1
        </DataArray>
        <DataArray type="Int32" Name="geometry_point_set_01" format="ascii" RangeMin="-1" RangeMax="1">
          -1 -1 -1 -1 -1 -1
          -1 -1 -1 -1 -1 -1
          -1 -1 -1 -1 -1 -1
          -1 -1 -1 -1 -1 -1
          -1 -1 -1 -1 -1 -1
          -1 -1 -1 -1 -1 -1
          -1 -1 -1 -1 -1 -1
          -1 -1 -1 -1 -1 -1
          -1 -1 -1 -1 -1 -1
          -1 -1 -1 -1 -1 -1
          -1 -1 -1 -1 -1 -1
          -1 -1 -1 -1 -1 -1
          -1 -1 -1 -1 -1 -1
          -1 -1 -1 -1 -1 -1
          -1 -1 -1 -1 -1 -1
          -1 -1 -1 -1 -1 -1
          -1 -1 -1 -1 -1 -1
          -1 -1 -1 -1 -1 -1
          -1 -1 -1 -1 -1 1
          1 -1 -1 -1 -1 -1
          -1 -1 -1 -1 -1 1
          1 -1 -1 -1 -1 -1
        </DataArray>
        <DataArray type="Int32" Name="geometry_point_set_17" format="ascii" RangeMin="-1" RangeMax="1">
          -1 -1 -1 -1 -1 -1
          -1 -1 -1 -1 -1 -1
          -1 -1 -1 -1 -1 -1
          -1 -1 -1 -1 -1 -1
          -1 -1 -1 -1 -1 -1
          -1 -1 -1 -1 -1 -1
          -1 -1 -1 -1 -1 -1
          -1 -1 -1 -1 -1 -1
          -1 -1 -1 -1 -1 -1
          -1 -1 -1 -1 -1 -1
          -1 -1 -1 -1 -1 -1
          -1 -1 -1 -1 -1 -1
          -1 -1 -1 -1 -1 -1
          -1 -1 -1 -1 -1 -1
          -1 -1 -1 -1 -1 -1
          -1 -1 -1 -1 -1 -1
          -1 -1 -1 -1 -1 -1
          -1 -1 -1 -1 -1 -1
          -1 -1 -1 -1 -1 1
          1 -1 -1 -1 -1 -1
          -1 -1 -1 -1 -1 -1
          -1 -1 -1 -1 -1 -1
        </DataArray>
        <DataArray type="Int32" Name="geometry_point_set_18" format="ascii" RangeMin="-1" RangeMax="1">
          -1 -1 -1 -1 -1 -1
          -1 -1 -1 -1 -1 -1
          -1 -1 -1 -1 -1 -1
          -1 -1 -1 -1 -1 -1
          -1 -1 -1 -1 -1 -1
          -1 -1 -1 -1 -1 -1
          -1 -1 -1 -1 -1 -1
          -1 -1 -1 -1 -1 -1
          -1 -1 -1 -1 -1 -1
          -1 -1 -1 -1 -1 -1
          -1 -1 -1 -1 -1 -1
          -1 -1 -1 -1 -1 -1
          -1 -1 -1 -1 -1 -1
          -1 -1 -1 -1 -1 -1
          -1 -1 -1 -1 -1 -1
          -1 -1 -1 -1 -1 -1
          -1 -1 -1 -1 -1 -1
          -1 -1 -1 -1 -1 -1
          -1 -1 -1 -1 -1 -1
          -1 -1 -1 -1 -1 -1
          -1 -1 -1 -1 -1 1
          1 -1 -1 -1 -1 -1
        </DataArray>
        <DataArray type="Float64" Name="base_vector_1" NumberOfComponents="3" format="ascii" RangeMin="0.9999999999999998" RangeMax="1.0000000000000004">
          0 0.8660254037844387 -0.49999999999999994 -0.3314135740355916 0.8001031451912656 -0.4999999999999999
          -0.6123724356957949 0.6123724356957948 -0.5 -0.6123724356957949 0.6123724356957948 -0.5
          -0.8001031451912656 0.33141357403559185 -0.5 -0.8660254037844387 0 -0.49999999999999994
          -0.8660254037844387 0 0.49999999999999994 -0.8001031451912657 -0.331413574035592 0.49999999999999994
          -0.6123724356957945 -0.6123724356957948 0.5 -0.6123724356957945 -0.6123724356957948 0.5
          -0.3314135740355916 -0.8001031451912655 0.49999999999999994 0 -0.8660254037844387 0.49999999999999994
          0 0 0.9999999999999999 0 0 0.9999999999999999
          0 0 0.9999999999999999 0 0 0.9999999999999999
          0 0 0.9999999999999999 0 0 0.9999999999999999
          0 -0.8660254037844387 -0.4999999999999999 0.33141357403559213 -0.8001031451912655 -0.5
          0.6123724356957949 -0.6123724356957944 -0.5 0.6123724356957949 -0.6123724356957944 -0.5
          0.8001031451912657 -0.33141357403559185 -0.49999999999999994 0.8660254037844388 0 -0.49999999999999994
          0.8660254037844388 0 0.49999999999999994 0.800103145191265 0.33141357403559274 0.49999999999999994
          0.6123724356957942 0.6123724356957949 0.4999999999999999 0.6123724356957942 0.6123724356957949 0.4999999999999999
          0.3314135740355917 0.8001031451912656 0.4999999999999999 0 0.8660254037844387 0.5
          0 0 1 0 0 1
          0 0 1 0 0 1
          0 0 1 0 0 1
          0 0.8660254037844388 0.4999999999999999 -0.3314135740355918 0.8001031451912655 0.49999999999999983
          -0.6123724356957949 0.6123724356957947 0.49999999999999994 -0.6123724356957949 0.6123724356957947 0.49999999999999994
          -0.8001031451912657 0.3314135740355917 0.49999999999999983 -0.8660254037844388 0 0.4999999999999999
          -0.8660254037844388 0 -0.4999999999999999 -0.8001031451912657 -0.3314135740355919 -0.49999999999999994
          -0.6123724356957946 -0.6123724356957948 -0.49999999999999994 -0.6123724356957946 -0.6123724356957948 -0.49999999999999994
          -0.3314135740355918 -0.8001031451912655 -0.49999999999999983 0 -0.8660254037844388 -0.4999999999999999
          0 0 0.9999999999999998 0 0 0.9999999999999998
          0 0 0.9999999999999998 0 0 0.9999999999999998
          0 0 0.9999999999999998 0 0 0.9999999999999998
          0 -0.8660254037844388 0.4999999999999999 0.33141357403559224 -0.8001031451912654 0.4999999999999999
          0.6123724356957951 -0.6123724356957942 0.49999999999999994 0.6123724356957951 -0.6123724356957942 0.49999999999999994
          0.8001031451912658 -0.3314135740355917 0.49999999999999983 0.8660254037844388 0 0.4999999999999999
          0.8660254037844388 0 -0.4999999999999999 0.8001031451912651 0.3314135740355926 -0.49999999999999983
          0.6123724356957944 0.6123724356957949 -0.4999999999999999 0.6123724356957944 0.6123724356957949 -0.4999999999999999
          0.3314135740355919 0.8001031451912655 -0.49999999999999983 0 0.8660254037844388 -0.4999999999999999
          0 0 0.9999999999999998 0 0 0.9999999999999998
          0 0 0.9999999999999998 0 0 0.9999999999999998
          0 0 0.9999999999999998 0 0 0.9999999999999998
          0 0.8660254037844388 -0.4999999999999999 -0.3314135740355916 0.8001031451912656 -0.4999999999999999
          -0.6123724356957949 0.6123724356957948 -0.4999999999999999 -0.6123724356957949 0.6123724356957948 -0.4999999999999999
          -0.8001031451912656 0.33141357403559185 -0.49999999999999983 -0.8660254037844388 0 -0.4999999999999999
          -0.8660254037844388 0 0.4999999999999999 -0.8001031451912657 -0.3314135740355921 0.49999999999999983
          -0.6123724356957945 -0.6123724356957949 0.49999999999999983 -0.6123724356957945 -0.6123724356957949 0.49999999999999983
          -0.3314135740355916 -0.8001031451912656 0.49999999999999983 0 -0.8660254037844388 0.4999999999999999
          0 0 0.9999999999999999 0 0 0.9999999999999999
          0 0 0.9999999999999999 0 0 0.9999999999999999
          0 0 0.9999999999999999 0 0 0.9999999999999999
          0 -0.8660254037844388 -0.4999999999999999 0.33141357403559213 -0.8001031451912655 -0.4999999999999999
          0.6123724356957949 -0.6123724356957944 -0.4999999999999999 0.6123724356957949 -0.6123724356957944 -0.4999999999999999
          0.8001031451912657 -0.33141357403559185 -0.49999999999999983 0.8660254037844388 0 -0.4999999999999999
          0.8660254037844388 0 0.4999999999999999 0.800103145191265 0.33141357403559274 0.49999999999999983
          0.6123724356957942 0.612372435695795 0.49999999999999983 0.6123724356957942 0.612372435695795 0.49999999999999983
          0.3314135740355917 0.8001031451912656 0.4999999999999999 0 0.8660254037844388 0.4999999999999999
          0 0 1 0 0 1
          0 0 1 0 0 1
          0 0 1 0 0 1
          0 0.8660254037844388 0.4999999999999999 -0.3314135740355918 0.8001031451912655 0.49999999999999983
          -0.6123724356957949 0.6123724356957947 0.49999999999999994 -0.6123724356957949 0.6123724356957947 0.49999999999999994
          -0.8001031451912657 0.3314135740355917 0.49999999999999983 -0.8660254037844388 0 0.4999999999999999
          -0.8660254037844388 0 -0.4999999999999999 -0.8001031451912657 -0.3314135740355919 -0.49999999999999994
          -0.6123724356957946 -0.6123724356957948 -0.49999999999999994 -0.6123724356957946 -0.6123724356957948 -0.49999999999999994
          -0.3314135740355918 -0.8001031451912655 -0.49999999999999983 0 -0.8660254037844388 -0.4999999999999999
          0 -0.8660254037844388 0.4999999999999999 0.33141357403559224 -0.8001031451912654 0.4999999999999999
          0.6123724356957951 -0.6123724356957942 0.49999999999999994 0.6123724356957951 -0.6123724356957942 0.49999999999999994
          0.8001031451912658 -0.3314135740355917 0.49999999999999983 0.8660254037844388 0 0.4999999999999999
          0.8660254037844388 0 -0.4999999999999999 0.8001031451912651 0.3314135740355926 -0.49999999999999983
          0.6123724356957944 0.6123724356957949 -0.4999999999999999 0.6123724356957944 0.6123724356957949 -0.4999999999999999
          0.3314135740355919 0.8001031451912655 -0.49999999999999983 0 0.8660254037844388 -0.4999999999999999
          <InformationKey name="L2_NORM_RANGE" location="vtkDataArray" length="2">
            <Value index="0">
              1
            </Value>
            <Value index="1">
              1
            </Value>
          </InformationKey>
        </DataArray>
        <DataArray type="Float64" Name="base_vector_2" NumberOfComponents="3" format="ascii" RangeMin="0.9999999999999998" RangeMax="1.0000000000000002">
          1 0 0 0.9238795325112866 0.38268343236508984 0
          0.7071067811865476 0.7071067811865478 0 0.7071067811865476 0.7071067811865478 0
          0.38268343236508967 0.923879532511287 0 0 1 0
          0 1 0 -0.38268343236508995 0.9238795325112868 0
          -0.7071067811865478 0.7071067811865476 0 -0.7071067811865478 0.7071067811865476 0
          -0.9238795325112867 0.38268343236508984 0 -1 0 0
          0.9999999999999999 0 0 0.9999999999999999 0 0
          0.9999999999999999 0 0 0.9999999999999999 0 0
          0.9999999999999999 0 0 0.9999999999999999 0 0
          -1 0 0 -0.9238795325112865 -0.3826834323650904 0
          -0.7071067811865471 -0.7071067811865481 0 -0.7071067811865471 -0.7071067811865481 0
          -0.38268343236508967 -0.9238795325112868 0 0 -1 0
          0 -1 0 0.38268343236509067 -0.9238795325112863 0
          0.7071067811865479 -0.7071067811865472 0 0.7071067811865479 -0.7071067811865472 0
          0.9238795325112866 -0.3826834323650897 0 1 0 0
          -1 0 0 -1 0 0
          -1 0 0 -1 0 0
          -1 0 0 -1 0 0
          1 0 0 0.9238795325112867 0.3826834323650896 0
          0.7071067811865477 0.7071067811865477 0 0.7071067811865477 0.7071067811865477 0
          0.38268343236508984 0.9238795325112868 0 0 1 0
          0 1 0 -0.38268343236509006 0.9238795325112867 0
          -0.7071067811865478 0.7071067811865475 0 -0.7071067811865478 0.7071067811865475 0
          -0.9238795325112867 0.3826834323650896 0 -1 0 0
          0 0.9999999999999998 0 0 0.9999999999999998 0
          0 0.9999999999999998 0 0 0.9999999999999998 0
          0 0.9999999999999998 0 0 0.9999999999999998 0
          -1 0 0 -0.9238795325112866 -0.3826834323650903 0
          -0.7071067811865472 -0.7071067811865479 0 -0.7071067811865472 -0.7071067811865479 0
          -0.38268343236508984 -0.9238795325112867 0 0 -1 0
          0 -1 0 0.38268343236509084 -0.9238795325112861 0
          0.7071067811865479 -0.707106781186547 0 0.7071067811865479 -0.707106781186547 0
          0.9238795325112867 -0.3826834323650895 0 1 0 0
          0 -0.9999999999999998 0 0 -0.9999999999999998 0
          0 -0.9999999999999998 0 0 -0.9999999999999998 0
          0 -0.9999999999999998 0 0 -0.9999999999999998 0
          1 0 0 0.9238795325112866 0.38268343236508984 0
          0.7071067811865476 0.7071067811865478 0 0.7071067811865476 0.7071067811865478 0
          0.38268343236508967 0.923879532511287 0 0 1 0
          0 1 0 -0.3826834323650899 0.9238795325112868 0
          -0.7071067811865477 0.7071067811865476 0 -0.7071067811865477 0.7071067811865476 0
          -0.9238795325112866 0.38268343236508984 0 -1 0 0
          0.9999999999999999 0 0 0.9999999999999999 0 0
          0.9999999999999999 0 0 0.9999999999999999 0 0
          0.9999999999999999 0 0 0.9999999999999999 0 0
          -1 0 0 -0.9238795325112865 -0.3826834323650904 0
          -0.7071067811865471 -0.7071067811865481 0 -0.7071067811865471 -0.7071067811865481 0
          -0.38268343236508967 -0.9238795325112868 0 0 -1 0
          0 -1 0 0.38268343236509067 -0.9238795325112863 0
          0.7071067811865478 -0.7071067811865472 0 0.7071067811865478 -0.7071067811865472 0
          0.9238795325112866 -0.3826834323650897 0 1 0 0
          -1 0 0 -1 0 0
          -1 0 0 -1 0 0
          -1 0 0 -1 0 0
          1 0 0 0.9238795325112867 0.3826834323650896 0
          0.7071067811865477 0.7071067811865477 0 0.7071067811865477 0.7071067811865477 0
          0.38268343236508984 0.9238795325112868 0 0 1 0
          0 1 0 -0.38268343236509006 0.9238795325112867 0
          -0.7071067811865478 0.7071067811865475 0 -0.7071067811865478 0.7071067811865475 0
          -0.9238795325112867 0.3826834323650896 0 -1 0 0
          -1 0 0 -0.9238795325112866 -0.3826834323650903 0
          -0.7071067811865472 -0.7071067811865479 0 -0.7071067811865472 -0.7071067811865479 0
          -0.38268343236508984 -0.9238795325112867 0 0 -1 0
          0 -1 0 0.38268343236509084 -0.9238795325112861 0
          0.7071067811865479 -0.707106781186547 0 0.7071067811865479 -0.707106781186547 0
          0.9238795325112867 -0.3826834323650895 0 1 0 0
          <InformationKey name="L2_NORM_RANGE" location="vtkDataArray" length="2">
            <Value index="0">
              1
            </Value>
            <Value index="1">
              1
            </Value>
          </InformationKey>
        </DataArray>
        <DataArray type="Float64" Name="base_vector_3" NumberOfComponents="3" format="ascii" RangeMin="0.9999999999999997" RangeMax="1.0000000000000002">
          0 -0.5 -0.8660254037844387 0.1913417161825451 -0.4619397662556432 -0.8660254037844385
          0.35355339059327406 -0.3535533905932735 -0.866025403784439 0.35355339059327406 -0.3535533905932735 -0.866025403784439
          0.46193976625564354 -0.19134171618254459 -0.8660254037844387 0.49999999999999994 0 -0.8660254037844387
          -0.49999999999999994 0 -0.8660254037844387 -0.4619397662556434 -0.19134171618254475 -0.8660254037844388
          -0.35355339059327384 -0.3535533905932736 -0.8660254037844388 -0.35355339059327384 -0.3535533905932736 -0.8660254037844388
          -0.19134171618254509 -0.46193976625564326 -0.8660254037844385 0 -0.49999999999999994 -0.8660254037844388
          0 0.9999999999999999 0 0 0.9999999999999999 0
          0 0.9999999999999999 0 0 0.9999999999999999 0
          0 0.9999999999999999 0 0 0.9999999999999999 0
          0 0.49999999999999994 -0.8660254037844387 -0.19134171618254547 0.46193976625564315 -0.8660254037844387
          -0.3535533905932742 0.3535533905932733 -0.8660254037844388 -0.3535533905932742 0.3535533905932733 -0.8660254037844388
          -0.4619397662556434 0.1913417161825445 -0.8660254037844388 -0.49999999999999994 0 -0.8660254037844387
          0.49999999999999994 0 -0.8660254037844387 0.4619397662556432 0.19134171618254509 -0.8660254037844386
          0.3535533905932736 0.3535533905932737 -0.8660254037844386 0.3535533905932736 0.3535533905932737 -0.8660254037844386
          0.1913417161825451 0.46193976625564315 -0.8660254037844386 0 0.49999999999999994 -0.8660254037844388
          0 -1 0 0 -1 0
          0 -1 0 0 -1 0
          0 -1 0 0 -1 0
          0 0.4999999999999999 -0.8660254037844388 -0.19134171618254442 0.46193976625564337 -0.8660254037844386
          -0.35355339059327345 0.35355339059327395 -0.866025403784439 -0.35355339059327345 0.35355339059327395 -0.866025403784439
          -0.4619397662556431 0.19134171618254517 -0.8660254037844388 -0.4999999999999999 0 -0.8660254037844388
          0.4999999999999999 0 -0.8660254037844388 0.4619397662556432 0.19134171618254522 -0.8660254037844389
          0.35355339059327345 0.35355339059327395 -0.8660254037844388 0.35355339059327345 0.35355339059327395 -0.8660254037844388
          0.19134171618254453 0.4619397662556433 -0.8660254037844386 0 0.4999999999999999 -0.8660254037844388
          -0.9999999999999998 0 0 -0.9999999999999998 0 0
          -0.9999999999999998 0 0 -0.9999999999999998 0 0
          -0.9999999999999998 0 0 -0.9999999999999998 0 0
          0 -0.4999999999999999 -0.8660254037844388 0.1913417161825448 -0.4619397662556433 -0.8660254037844388
          0.3535533905932737 -0.35355339059327373 -0.8660254037844387 0.3535533905932737 -0.35355339059327373 -0.8660254037844387
          0.4619397662556431 -0.19134171618254514 -0.8660254037844388 0.4999999999999999 0 -0.8660254037844387
          -0.4999999999999999 0 -0.8660254037844387 -0.46193976625564287 -0.19134171618254556 -0.8660254037844386
          -0.3535533905932733 -0.35355339059327406 -0.8660254037844386 -0.3535533905932733 -0.35355339059327406 -0.8660254037844386
          -0.19134171618254453 -0.4619397662556433 -0.8660254037844385 0 -0.4999999999999999 -0.8660254037844387
          0.9999999999999998 0 0 0.9999999999999998 0 0
          0.9999999999999998 0 0 0.9999999999999998 0 0
          0.9999999999999998 0 0 0.9999999999999998 0 0
          0 -0.4999999999999999 -0.8660254037844388 0.19134171618254506 -0.46193976625564315 -0.8660254037844385
          0.35355339059327395 -0.3535533905932735 -0.866025403784439 0.35355339059327395 -0.3535533905932735 -0.866025403784439
          0.4619397662556433 -0.19134171618254459 -0.8660254037844387 0.4999999999999999 0 -0.8660254037844388