<?xml version="1.0"?>
<VTKFile type="UnstructuredGrid" version="0.1" byte_order="LittleEndian" header_type="UInt32" compressor="vtkZLibDataCompressor">
  <UnstructuredGrid>
    <Piece NumberOfPoints="9" NumberOfCells="3">
      <PointData>
        <DataArray type="Float64" Name="node_value" format="ascii" RangeMin="0.5" RangeMax="1">
          1 0.5 1 1 0.5 1
          1 0.5 1
        </DataArray>
        <DataArray type="Float64" Name="base_vector_1" NumberOfComponents="3" format="ascii" RangeMin="1" RangeMax="1">
          -0.5103067102965408 0.8576657410168776 -0.06321817865371243 -0.5103067102965408 0.8576657410168776 -0.06321817865371243
          -0.5103067102965408 0.8576657410168776 -0.06321817865371243 -0.5103067102965408 0.8576657410168776 -0.06321817865371243
          -0.5103067102965408 0.8576657410168776 -0.06321817865371243 -0.5103067102965408 0.8576657410168776 -0.06321817865371243
          -0.5103067102965408 0.8576657410168776 -0.06321817865371243 -0.5103067102965408 0.8576657410168776 -0.06321817865371243
          -0.5103067102965408 0.8576657410168776 -0.06321817865371243
          <InformationKey name="L2_NORM_RANGE" location="vtkDataArray" length="2">
            <Value index="0">
              1
            </Value>
            <Value index="1">
              1
            </Value>
          </InformationKey>
        </DataArray>
        <DataArray type="Float64" Name="base_vector_2" NumberOfComponents="3" format="ascii" RangeMin="1.0000000000000002" RangeMax="1.0000000000000002">
          -0.44154287970536144 -0.19821456431290368 0.8750719238301174 -0.44154287970536144 -0.19821456431290368 0.8750719238301174
          -0.44154287970536144 -0.19821456431290368 0.8750719238301174 -0.44154287970536144 -0.19821456431290368 0.8750719238301174
          -0.44154287970536144 -0.19821456431290368 0.8750719238301174 -0.44154287970536144 -0.19821456431290368 0.8750719238301174
          -0.44154287970536144 -0.19821456431290368 0.8750719238301174 -0.44154287970536144 -0.19821456431290368 0.8750719238301174
          -0.44154287970536144 -0.19821456431290368 0.8750719238301174
          <InformationKey name="L2_NORM_RANGE" location="vtkDataArray" length="2">
            <Value index="0">
              1
            </Value>
            <Value index="1">
              1
            </Value>
          </InformationKey>
        </DataArray>
        <DataArray type="Float64" Name="base_vector_3" NumberOfComponents="3" format="ascii" RangeMin="1" RangeMax="1">
          0.7379884462563213 0.4744686113751005 0.4798464233606047 0.7379884462563213 0.4744686113751005 0.4798464233606047
          0.7379884462563213 0.4744686113751005 0.4798464233606047 0.7379884462563213 0.4744686113751005 0.4798464233606047
          0.7379884462563213 0.4744686113751005 0.4798464233606047 0.7379884462563213 0.4744686113751005 0.4798464233606047
          0.7379884462563213 0.4744686113751005 0.4798464233606047 0.7379884462563213 0.4744686113751005 0.4798464233606047
          0.7379884462563213 0.4744686113751005 0.4798464233606047
          <InformationKey name="L2_NORM_RANGE" location="vtkDataArray" length="2">
            <Value index="0">
              1
            </Value>
            <Value index="1">
              1
            </Value>
          </InformationKey>
        </DataArray>
      </PointData>
      <CellData>
        <DataArray type="Float64" Name="cross_section_radius" format="ascii" RangeMin="-1" RangeMax="-1">
          -1 -1 -1
        </DataArray>
        <DataArray type="Float64" Name="partner_index" format="ascii" RangeMin="0" RangeMax="1">
          1 0 1
        </DataArray>
      </CellData>
      <Points>
        <DataArray type="Float64" Name="Points" NumberOfComponents="3" format="ascii" RangeMin="6.954433228267965" RangeMax="7.561705972366411">
          4.482364101462218 3.7961452550003125 -3.723148505136347 4.227210746313947 4.224978125508751 -3.7547575944632037
          3.972057391165677 4.6538109960171905 -3.7863666837900594 3.972057391165677 4.6538109960171905 -3.7863666837900594
          3.7169040360174064 5.082643866525629 -3.817975773116916 3.461750680869136 5.511476737034068 -3.8495848624437716
          4.482364101462218 3.7961452550003125 -3.723148505136347 4.227210746313947 4.224978125508751 -3.7547575944632037
          3.972057391165677 4.6538109960171905 -3.7863666837900594
          <InformationKey name="L2_NORM_RANGE" location="vtkDataArray" length="2">
            <Value index="0">
              6.9544332283
            </Value>
            <Value index="1">
              7.5617059724
            </Value>
          </InformationKey>
        </DataArray>
      </Points>
      <Cells>
        <DataArray type="Int64" Name="connectivity" format="ascii" RangeMin="0" RangeMax="8">
          0 1 2 3 4 5
          6 7 8
        </DataArray>
        <DataArray type="Int64" Name="offsets" format="ascii" RangeMin="3" RangeMax="9">
          3 6 9
        </DataArray>
        <DataArray type="UInt8" Name="types" format="ascii" RangeMin="4" RangeMax="4">
          4 4 4
        </DataArray>
      </Cells>
    </Piece>
  </UnstructuredGrid>
</VTKFile>
