<?xml version="1.0"?>
<VTKFile type="UnstructuredGrid" version="0.1" byte_order="LittleEndian" header_type="UInt32" compressor="vtkZLibDataCompressor">
  <UnstructuredGrid>
    <Piece NumberOfPoints="18" NumberOfCells="6">
      <PointData>
        <DataArray type="Float64" Name="node_value" format="ascii" RangeMin="0.5" RangeMax="1">
          1 0.5 1 1 0.5 1
          1 0.5 1 1 0.5 1
          1 0.5 1 1 0.5 1
        </DataArray>
        <DataArray type="Float64" Name="base_vector_1" NumberOfComponents="3" format="ascii" RangeMin="0.9999999999999999" RangeMax="1">
          1 0 0 1 0 0
          1 0 0 1 0 0
          1 0 0 1 0 0
          1 0 0 1 0 0
          1 0 0 1 0 0
          1 0 0 1 0 0
          1 0 0 0.9238795325112867 -0.3826834323650897 4.686520405326298e-17
          0.7071067811865475 -0.7071067811865476 8.659560562354933e-17 0.7071067811865475 -0.7071067811865476 8.659560562354933e-17
          0.38268343236508984 -0.9238795325112866 1.1314261122877003e-16 2.220446049250313e-16 -1 1.2246467991473532e-16
          <InformationKey name="L2_NORM_RANGE" location="vtkDataArray" length="2">
            <Value index="0">
              1
            </Value>
            <Value index="1">
              1
            </Value>
          </InformationKey>
        </DataArray>
        <DataArray type="Float64" Name="base_vector_2" NumberOfComponents="3" format="ascii" RangeMin="0.9999999999999999" RangeMax="1">
          0 1 0 0 1 0
          0 1 0 0 1 0
          0 1 0 0 1 0
          0 1 0 0 1 0
          0 1 0 0 1 0
          0 1 0 0 1 0
          0 -1 1.2246467991473532e-16 -0.3826834323650897 -0.9238795325112867 1.1314261122877003e-16
          -0.7071067811865476 -0.7071067811865475 8.659560562354932e-17 -0.7071067811865476 -0.7071067811865475 8.659560562354932e-17
          -0.9238795325112866 -0.38268343236508984 4.686520405326299e-17 -1 -2.220446049250313e-16 2.465190328815662e-32
          <InformationKey name="L2_NORM_RANGE" location="vtkDataArray" length="2">
            <Value index="0">
              1
            </Value>
            <Value index="1">
              1
            </Value>
          </InformationKey>
        </DataArray>
        <DataArray type="Float64" Name="base_vector_3" NumberOfComponents="3" format="ascii" RangeMin="1" RangeMax="1">
          0 0 1 0 0 1
          0 0 1 0 0 1
          0 0 1 0 0 1
          0 0 1 0 0 1
          0 0 1 0 0 1
          0 0 1 0 0 1
          0 -1.2246467991473532e-16 -1 -3.0814879110195774e-33 -1.2246467991473532e-16 -1
          6.162975822039155e-33 -1.224646799147353e-16 -1 6.162975822039155e-33 -1.224646799147353e-16 -1
          0 -1.2246467991473532e-16 -1 0 -1.2246467991473532e-16 -1
          <InformationKey name="L2_NORM_RANGE" location="vtkDataArray" length="2">
            <Value index="0">
              1
            </Value>
            <Value index="1">
              1
            </Value>
          </InformationKey>
        </DataArray>
      </PointData>
      <CellData>
        <DataArray type="Float64" Name="cross_section_radius" format="ascii" RangeMin="0.05" RangeMax="0.05">
          0.05 0.05 0.05 0.05 0.05 0.05
        </DataArray>
        <DataArray type="Int32" Name="cell_data" format="ascii" RangeMin="1" RangeMax="69">
          69 69 1 1 2 2
        </DataArray>
        <DataArray type="Float64" Name="other_data" format="ascii" RangeMin="69" RangeMax="69.69">
          69.69 69.69 69.69 69.69 69 69
        </DataArray>
      </CellData>
      <Points>
        <DataArray type="Float64" Name="Points" NumberOfComponents="3" format="ascii" RangeMin="0" RangeMax="3.5">
          0 0 0 0.5 0 0
          1 0 0 1 0 0
          1.5 0 0 2 0 0
          0 1 0 0.5 1 0
          1 1 0 1 1 0
          1.5 1 0 2 1 0
          0 3.5 -1.8369701987210297e-16 0.5740251485476346 3.38581929876693 -1.6971391684315505e-16
          1.0606601717798214 3.060660171779821 -1.2989340843532398e-16 1.0606601717798214 3.060660171779821 -1.2989340843532398e-16
          1.38581929876693 2.574025148547635 -7.029780607989448e-17 1.5 2.0000000000000004 -2.465190328815662e-32
          <InformationKey name="L2_NORM_RANGE" location="vtkDataArray" length="2">
            <Value index="0">
              0
            </Value>
            <Value index="1">
              3.5
            </Value>
          </InformationKey>
        </DataArray>
      </Points>
      <Cells>
        <DataArray type="Int64" Name="connectivity" format="ascii" RangeMin="0" RangeMax="17">
          0 1 2 3 4 5
          6 7 8 9 10 11
          12 13 14 15 16 17
        </DataArray>
        <DataArray type="Int64" Name="offsets" format="ascii" RangeMin="3" RangeMax="18">
          3 6 9 12 15 18
        </DataArray>
        <DataArray type="UInt8" Name="types" format="ascii" RangeMin="4" RangeMax="4">
          4 4 4 4 4 4
        </DataArray>
      </Cells>
    </Piece>
  </UnstructuredGrid>
</VTKFile>
