<?xml version="1.0"?>
<VTKFile type="UnstructuredGrid" version="0.1" byte_order="LittleEndian" header_type="UInt32" compressor="vtkZLibDataCompressor">
  <UnstructuredGrid>
    <Piece NumberOfPoints="11" NumberOfCells="1">
      <PointData>
        <DataArray type="Float64" Name="base_vector_1" NumberOfComponents="3" format="ascii" RangeMin="0.9999999999999999" RangeMax="1">
          -0.9363764104172483 -0.18053011458991333 -0.30101178671318135 -0.9533235810321575 -0.2532076736237236 -0.16449931266143786
          -0.9531849224243018 -0.20655219924500517 -0.2208499324202512 -0.8666898924842926 -0.13636891281935734 -0.4798459647449706
          -0.825182223170394 -0.3207014305419173 -0.4649998828085162 -0.7651774797232312 -0.46025338385866027 -0.45018912378139103
          -0.7352360452004831 -0.39284887575330996 -0.5523565140896898 -0.6202595419487962 -0.3646707804432368 -0.6944734138269012
          -0.4278843701732946 -0.4240180989397308 -0.798200236490155 -0.24733963441908224 -0.41272169367586 -0.8766321399622332
          -0.10042868766251792 -0.25689086963069985 -0.9612081771368611
          <InformationKey name="L2_NORM_RANGE" location="vtkDataArray" length="2">
            <Value index="0">
              1
            </Value>
            <Value index="1">
              1
            </Value>
          </InformationKey>
        </DataArray>
        <DataArray type="Float64" Name="base_vector_2" NumberOfComponents="3" format="ascii" RangeMin="1" RangeMax="1">
          -0.17186802557050526 0.9835694574996485 -0.05524947113179815 -0.24422121148076664 0.9669624241245482 -0.07307304697385993
          -0.19726023173244073 0.9782871961041841 -0.06358115220312824 -0.13406997772372023 0.9901942086078923 -0.03925137338426891
          -0.2951212899918348 0.9466851408030327 -0.129192369651995 -0.4164837850967537 0.8870894250241399 -0.19903167778477432
          -0.365523821315868 0.9160641440126454 -0.16498127198268533 -0.3605794387061158 0.918827315689597 -0.16043326439685868
          -0.41751900140216974 0.8759824359207623 -0.24152154236519513 -0.4333864923865529 0.856319389249876 -0.280879425753471
          -0.41690510058628305 0.8880535821291484 -0.1937807327180109
          <InformationKey name="L2_NORM_RANGE" location="vtkDataArray" length="2">
            <Value index="0">
              1
            </Value>
            <Value index="1">
              1
            </Value>
          </InformationKey>
        </DataArray>
        <DataArray type="Float64" Name="base_vector_3" NumberOfComponents="3" format="ascii" RangeMin="0.9999999999999999" RangeMax="1">
          0.30604019311293934 3.469446951953614e-18 -0.9520185923601465 0.1775673103667741 -0.029488037392121427 -0.9836667656985626
          0.22918748796529365 -0.017039686783073882 -0.9732331398151693 0.48049336242941615 0.030314169225902403 -0.8764742893008425
          0.4816406572924688 0.03062411845441672 -0.8758335690139814 0.4909630141628643 0.03520191268942484 -0.8704689219421455
          0.5708067044881293 0.08059928581408068 -0.8171190006588157 0.6966064663810209 0.15090257066587842 -0.7014041952844148
          0.8016188927598562 0.22992047262013104 -0.5518548061225865 0.866602131004947 0.3104479137698447 -0.39066973183705445
          0.9033848658238225 0.38127144709244987 -0.19628516967031306
          <InformationKey name="L2_NORM_RANGE" location="vtkDataArray" length="2">
            <Value index="0">
              1
            </Value>
            <Value index="1">
              1
            </Value>
          </InformationKey>
        </DataArray>
      </PointData>
      <CellData>
      </CellData>
      <Points>
        <DataArray type="Float64" Name="Points" NumberOfComponents="3" format="ascii" RangeMin="247.92096127221953" RangeMax="257.9769312577398">
          -7.1250569690778525 -210.04983385893243 -131.50324671719574 -8.578164819865915 -210.3983440417262 -131.83558614621535
          -10.026601477709022 -210.7622027327942 -132.10363874672905 -14.20180257868919 -211.3479519751842 -133.85469263617816
          -15.489472749873045 -211.663500451998 -134.58202416527325 -16.699745304662436 -212.3023513258445 -135.2675684905443
          -17.801218999997673 -212.94076678280436 -135.98872651872801 -18.754138705532654 -213.4432395695042 -136.85004405889856
          -19.518668438544086 -214.02154051819838 -137.9530359796511 -20.054972216308695 -214.7109481986181 -139.291479799209
          -20.323214056103204 -215.25369105927618 -140.72992758098079
          <InformationKey name="L2_NORM_RANGE" location="vtkDataArray" length="2">
            <Value index="0">
              247.92096127
            </Value>
            <Value index="1">
              257.97693126
            </Value>
          </InformationKey>
        </DataArray>
      </Points>
      <Cells>
        <DataArray type="Int64" Name="connectivity" format="ascii" RangeMin="0" RangeMax="10">
          0 1 2 3 4 5
          6 7 8 9 10
        </DataArray>
        <DataArray type="Int64" Name="offsets" format="ascii" RangeMin="11" RangeMax="11">
          11
        </DataArray>
        <DataArray type="UInt8" Name="types" format="ascii" RangeMin="4" RangeMax="4">
          4
        </DataArray>
      </Cells>
    </Piece>
  </UnstructuredGrid>
</VTKFile>
