<?xml version="1.0"?>
<VTKFile type="UnstructuredGrid" version="0.1" byte_order="LittleEndian" header_type="UInt32" compressor="vtkZLibDataCompressor">
  <UnstructuredGrid>
    <Piece NumberOfPoints="132" NumberOfCells="44">
      <PointData>
        <DataArray type="Float64" Name="node_value" format="ascii" RangeMin="0.5" RangeMax="1">
          1 0.5 1 1 0.5 1
          1 0.5 1 1 0.5 1
          1 0.5 1 1 0.5 1
          1 0.5 1 1 0.5 1
          1 0.5 1 1 0.5 1
          1 0.5 1 1 0.5 1
          1 0.5 1 1 0.5 1
          1 0.5 1 1 0.5 1
          1 0.5 1 1 0.5 1
          1 0.5 1 1 0.5 1
          1 0.5 1 1 0.5 1
          1 0.5 1 1 0.5 1
          1 0.5 1 1 0.5 1
          1 0.5 1 1 0.5 1
          1 0.5 1 1 0.5 1
          1 0.5 1 1 0.5 1
          1 0.5 1 1 0.5 1
          1 0.5 1 1 0.5 1
          1 0.5 1 1 0.5 1
          1 0.5 1 1 0.5 1
          1 0.5 1 1 0.5 1
          1 0.5 1 1 0.5 1
        </DataArray>
        <DataArray type="Int32" Name="geometry_line_set_1" format="ascii" RangeMin="1" RangeMax="1">
          1 1 1 1 1 1
          1 1 1 1 1 1
          1 1 1 1 1 1
          1 1 1 1 1 1
          1 1 1 1 1 1
          1 1 1 1 1 1
          1 1 1 1 1 1
          1 1 1 1 1 1
          1 1 1 1 1 1
          1 1 1 1 1 1
          1 1 1 1 1 1
          1 1 1 1 1 1
          1 1 1 1 1 1
          1 1 1 1 1 1
          1 1 1 1 1 1
          1 1 1 1 1 1
          1 1 1 1 1 1
          1 1 1 1 1 1
          1 1 1 1 1 1
          1 1 1 1 1 1
          1 1 1 1 1 1
          1 1 1 1 1 1
        </DataArray>
        <DataArray type="Int32" Name="geometry_point_set_1" format="ascii" RangeMin="-1" RangeMax="1">
          -1 -1 -1 -1 -1 1
          1 -1 -1 -1 -1 -1
          -1 -1 -1 -1 -1 -1
          -1 -1 -1 -1 -1 1
          1 -1 -1 -1 -1 -1
          -1 -1 -1 -1 -1 -1
          -1 -1 -1 -1 -1 -1
          -1 -1 -1 -1 -1 -1
          -1 -1 -1 -1 -1 -1
          -1 -1 -1 -1 -1 -1
          -1 -1 -1 -1 -1 -1
          -1 -1 -1 -1 -1 -1
          -1 -1 -1 -1 -1 -1
          -1 -1 -1 -1 -1 -1
          -1 -1 -1 -1 -1 -1
          -1 -1 -1 -1 -1 -1
          -1 -1 -1 -1 -1 -1
          -1 -1 -1 -1 -1 -1
          -1 -1 -1 -1 -1 -1
          -1 -1 -1 -1 -1 -1
          -1 -1 -1 -1 -1 -1
          -1 -1 -1 -1 -1 -1
        </DataArray>
        <DataArray type="Int32" Name="geometry_point_set_2" format="ascii" RangeMin="-1" RangeMax="1">
          -1 -1 -1 -1 -1 -1
          -1 -1 -1 -1 -1 -1
          -1 -1 -1 -1 -1 -1
          -1 -1 -1 -1 -1 -1
          -1 -1 -1 -1 -1 -1
          -1 -1 -1 -1 -1 -1
          -1 -1 -1 -1 -1 -1
          -1 -1 -1 -1 -1 -1
          -1 -1 -1 -1 -1 -1
          -1 -1 -1 -1 -1 -1
          -1 -1 -1 -1 -1 -1
          -1 -1 -1 -1 -1 -1
          -1 -1 -1 -1 -1 -1
          -1 -1 -1 -1 -1 -1
          -1 -1 -1 -1 -1 -1
          -1 -1 -1 -1 -1 -1
          -1 -1 -1 -1 -1 -1
          -1 -1 -1 -1 -1 -1
          -1 -1 -1 -1 -1 1
          1 -1 -1 -1 -1 -1
          -1 -1 -1 -1 -1 1
          1 -1 -1 -1 -1 -1
        </DataArray>
        <DataArray type="Float64" Name="base_vector_1" NumberOfComponents="3" format="ascii" RangeMin="0.9999999999999998" RangeMax="1.0000000000000004">
          0 0.8660254037844387 -0.5 -0.3314135740355917 0.8001031451912655 -0.5
          -0.6123724356957949 0.6123724356957947 -0.5000000000000001 -0.6123724356957949 0.6123724356957947 -0.5000000000000001
          -0.8001031451912657 0.33141357403559174 -0.5 -0.8660254037844387 0 -0.49999999999999994
          -0.8660254037844387 0 0.49999999999999994 -0.8001031451912657 -0.33141357403559196 0.4999999999999999
          -0.6123724356957946 -0.6123724356957948 0.5 -0.6123724356957946 -0.6123724356957948 0.5
          -0.3314135740355917 -0.8001031451912655 0.4999999999999999 0 -0.8660254037844387 0.5
          0 0 0.9999999999999999 0 0 0.9999999999999999
          0 0 0.9999999999999999 0 0 0.9999999999999999
          0 0 0.9999999999999999 0 0 0.9999999999999999
          0 -0.8660254037844387 -0.5 0.33141357403559235 -0.8001031451912654 -0.5
          0.612372435695795 -0.6123724356957942 -0.5 0.612372435695795 -0.6123724356957942 -0.5
          0.8001031451912657 -0.3314135740355917 -0.5000000000000001 0.8660254037844388 0 -0.49999999999999994
          0.8660254037844388 0 0.49999999999999994 0.8001031451912651 0.33141357403559263 0.4999999999999999
          0.6123724356957942 0.6123724356957949 0.5 0.6123724356957942 0.6123724356957949 0.5
          0.3314135740355917 0.8001031451912655 0.4999999999999999 0 0.8660254037844387 0.49999999999999994
          0 0 1 0 0 1
          0 0 1 0 0 1
          0 0 1 0 0 1
          0 0.8660254037844388 0.4999999999999999 -0.3314135740355917 0.8001031451912655 0.49999999999999983
          -0.6123724356957949 0.6123724356957947 0.49999999999999994 -0.6123724356957949 0.6123724356957947 0.49999999999999994
          -0.8001031451912656 0.3314135740355918 0.4999999999999999 -0.8660254037844388 0 0.4999999999999999
          -0.8660254037844387 0 -0.49999999999999994 -0.8001031451912657 -0.331413574035592 -0.5
          -0.6123724356957946 -0.6123724356957948 -0.5 -0.6123724356957946 -0.6123724356957948 -0.5
          -0.3314135740355917 -0.8001031451912655 -0.4999999999999999 0 -0.8660254037844387 -0.49999999999999994
          0 0 0.9999999999999998 0 0 0.9999999999999998
          0 0 0.9999999999999998 0 0 0.9999999999999998
          0 0 0.9999999999999998 0 0 0.9999999999999998
          0 -0.8660254037844388 0.4999999999999999 0.33141357403559235 -0.8001031451912655 0.4999999999999999
          0.612372435695795 -0.6123724356957942 0.4999999999999999 0.612372435695795 -0.6123724356957942 0.4999999999999999
          0.8001031451912657 -0.3314135740355917 0.4999999999999999 0.8660254037844388 0 0.4999999999999999
          0.8660254037844388 0 -0.49999999999999994 0.8001031451912651 0.3314135740355927 -0.49999999999999983
          0.6123724356957942 0.6123724356957949 -0.4999999999999999 0.6123724356957942 0.6123724356957949 -0.4999999999999999
          0.3314135740355917 0.8001031451912655 -0.4999999999999999 0 0.8660254037844387 -0.49999999999999994
          0 0 0.9999999999999998 0 0 0.9999999999999998
          0 0 0.9999999999999998 0 0 0.9999999999999998
          0 0 0.9999999999999998 0 0 0.9999999999999998
          0 0.8660254037844387 -0.49999999999999994 -0.3314135740355917 0.8001031451912655 -0.4999999999999999
          -0.6123724356957949 0.6123724356957947 -0.5 -0.6123724356957949 0.6123724356957947 -0.5
          -0.8001031451912657 0.33141357403559174 -0.5 -0.8660254037844387 0 -0.49999999999999994
          -0.8660254037844388 0 0.4999999999999999 -0.8001031451912657 -0.331413574035592 0.4999999999999999
          -0.6123724356957946 -0.6123724356957948 0.49999999999999994 -0.6123724356957946 -0.6123724356957948 0.49999999999999994
          -0.3314135740355917 -0.8001031451912655 0.4999999999999998 0 -0.8660254037844388 0.4999999999999999
          0 0 0.9999999999999999 0 0 0.9999999999999999
          0 0 0.9999999999999999 0 0 0.9999999999999999
          0 0 0.9999999999999999 0 0 0.9999999999999999
          0 -0.8660254037844387 -0.49999999999999994 0.33141357403559235 -0.8001031451912654 -0.4999999999999999
          0.612372435695795 -0.6123724356957942 -0.4999999999999999 0.612372435695795 -0.6123724356957942 -0.4999999999999999
          0.8001031451912657 -0.3314135740355917 -0.4999999999999999 0.8660254037844388 0 -0.49999999999999994
          0.8660254037844388 0 0.4999999999999999 0.8001031451912651 0.3314135740355927 0.4999999999999998
          0.6123724356957942 0.6123724356957949 0.4999999999999999 0.6123724356957942 0.6123724356957949 0.4999999999999999
          0.3314135740355917 0.8001031451912656 0.4999999999999998 0 0.8660254037844388 0.4999999999999999
          0 0 1 0 0 1
          0 0 1 0 0 1
          0 0 1 0 0 1
          0 0.8660254037844388 0.4999999999999999 -0.3314135740355917 0.8001031451912655 0.49999999999999983
          -0.6123724356957949 0.6123724356957947 0.49999999999999994 -0.6123724356957949 0.6123724356957947 0.49999999999999994
          -0.8001031451912656 0.3314135740355918 0.4999999999999999 -0.8660254037844388 0 0.4999999999999999
          -0.8660254037844387 0 -0.49999999999999994 -0.8001031451912657 -0.331413574035592 -0.5
          -0.6123724356957946 -0.6123724356957948 -0.5 -0.6123724356957946 -0.6123724356957948 -0.5
          -0.3314135740355917 -0.8001031451912655 -0.4999999999999999 0 -0.8660254037844387 -0.49999999999999994
          0 -0.8660254037844388 0.4999999999999999 0.33141357403559235 -0.8001031451912655 0.4999999999999999
          0.612372435695795 -0.6123724356957942 0.4999999999999999 0.612372435695795 -0.6123724356957942 0.4999999999999999
          0.8001031451912657 -0.3314135740355917 0.4999999999999999 0.8660254037844388 0 0.4999999999999999
          0.8660254037844388 0 -0.49999999999999994 0.8001031451912651 0.3314135740355927 -0.49999999999999983
          0.6123724356957942 0.6123724356957949 -0.4999999999999999 0.6123724356957942 0.6123724356957949 -0.4999999999999999
          0.3314135740355917 0.8001031451912655 -0.4999999999999999 0 0.8660254037844387 -0.49999999999999994
          <InformationKey name="L2_NORM_RANGE" location="vtkDataArray" length="2">
            <Value index="0">
              1
            </Value>
            <Value index="1">
              1
            </Value>
          </InformationKey>
        </DataArray>
        <DataArray type="Float64" Name="base_vector_2" NumberOfComponents="3" format="ascii" RangeMin="0.9999999999999997" RangeMax="1.0000000000000002">
          1 0 0 0.9238795325112867 0.3826834323650897 0
          0.7071067811865477 0.7071067811865478 0 0.7071067811865477 0.7071067811865478 0
          0.3826834323650898 0.9238795325112868 0 0 1 0
          0 1 0 -0.38268343236509 0.9238795325112867 0
          -0.7071067811865478 0.7071067811865475 0 -0.7071067811865478 0.7071067811865475 0
          -0.9238795325112867 0.3826834323650897 0 -1 0 0
          0.9999999999999999 0 0 0.9999999999999999 0 0
          0.9999999999999999 0 0 0.9999999999999999 0 0
          0.9999999999999999 0 0 0.9999999999999999 0 0
          -1 0 0 -0.9238795325112866 -0.38268343236509017 0
          -0.7071067811865472 -0.7071067811865479 0 -0.7071067811865472 -0.7071067811865479 0
          -0.3826834323650896 -0.923879532511287 0 0 -1 0
          0 -1 0 0.3826834323650908 -0.9238795325112861 0
          0.7071067811865479 -0.7071067811865472 0 0.7071067811865479 -0.7071067811865472 0
          0.9238795325112867 -0.3826834323650897 0 1 0 0
          -1 0 0 -1 0 0
          -1 0 0 -1 0 0
          -1 0 0 -1 0 0
          1 0 0 0.9238795325112867 0.3826834323650897 0
          0.7071067811865477 0.7071067811865477 0 0.7071067811865477 0.7071067811865477 0
          0.3826834323650897 0.923879532511287 0 0 1 0
          0 1 0 -0.38268343236508995 0.9238795325112868 0
          -0.7071067811865478 0.7071067811865475 0 -0.7071067811865478 0.7071067811865475 0
          -0.9238795325112867 0.3826834323650897 0 -1 0 0
          0 0.9999999999999998 0 0 0.9999999999999998 0
          0 0.9999999999999998 0 0 0.9999999999999998 0
          0 0.9999999999999998 0 0 0.9999999999999998 0
          -1 0 0 -0.9238795325112865 -0.38268343236509017 0
          -0.7071067811865472 -0.7071067811865479 0 -0.7071067811865472 -0.7071067811865479 0
          -0.3826834323650896 -0.923879532511287 0 0 -1 0
          0 -1 0 0.3826834323650907 -0.9238795325112861 0
          0.7071067811865479 -0.7071067811865472 0 0.7071067811865479 -0.7071067811865472 0
          0.9238795325112867 -0.3826834323650897 0 1 0 0
          0 -0.9999999999999998 0 0 -0.9999999999999998 0
          0 -0.9999999999999998 0 0 -0.9999999999999998 0
          0 -0.9999999999999998 0 0 -0.9999999999999998 0
          1 0 0 0.9238795325112867 0.3826834323650897 0
          0.7071067811865477 0.7071067811865478 0 0.7071067811865477 0.7071067811865478 0
          0.3826834323650898 0.9238795325112868 0 0 1 0
          0 1 0 -0.38268343236508995 0.9238795325112868 0
          -0.7071067811865478 0.7071067811865475 0 -0.7071067811865478 0.7071067811865475 0
          -0.9238795325112867 0.3826834323650897 0 -1 0 0
          0.9999999999999999 0 0 0.9999999999999999 0 0
          0.9999999999999999 0 0 0.9999999999999999 0 0
          0.9999999999999999 0 0 0.9999999999999999 0 0
          -1 0 0 -0.9238795325112866 -0.38268343236509017 0
          -0.7071067811865472 -0.7071067811865479 0 -0.7071067811865472 -0.7071067811865479 0
          -0.3826834323650896 -0.923879532511287 0 0 -1 0
          0 -1 0 0.3826834323650907 -0.9238795325112861 0
          0.7071067811865479 -0.7071067811865472 0 0.7071067811865479 -0.7071067811865472 0
          0.9238795325112866 -0.3826834323650897 0 1 0 0
          -1 0 0 -1 0 0
          -1 0 0 -1 0 0
          -1 0 0 -1 0 0
          1 0 0 0.9238795325112867 0.3826834323650897 0
          0.7071067811865477 0.7071067811865477 0 0.7071067811865477 0.7071067811865477 0
          0.3826834323650897 0.923879532511287 0 0 1 0
          0 1 0 -0.38268343236508995 0.9238795325112868 0
          -0.7071067811865478 0.7071067811865475 0 -0.7071067811865478 0.7071067811865475 0
          -0.9238795325112867 0.3826834323650897 0 -1 0 0
          -1 0 0 -0.9238795325112865 -0.38268343236509017 0
          -0.7071067811865472 -0.7071067811865479 0 -0.7071067811865472 -0.7071067811865479 0
          -0.3826834323650896 -0.923879532511287 0 0 -1 0
          0 -1 0 0.3826834323650907 -0.9238795325112861 0
          0.7071067811865479 -0.7071067811865472 0 0.7071067811865479 -0.7071067811865472 0
          0.9238795325112867 -0.3826834323650897 0 1 0 0
          <InformationKey name="L2_NORM_RANGE" location="vtkDataArray" length="2">
            <Value index="0">
              1
            </Value>
            <Value index="1">
              1
            </Value>
          </InformationKey>
        </DataArray>
        <DataArray type="Float64" Name="base_vector_3" NumberOfComponents="3" format="ascii" RangeMin="0.9999999999999998" RangeMax="1.0000000000000002">
          0 -0.5 -0.8660254037844387 0.19134171618254484 -0.46193976625564337 -0.8660254037844385
          0.35355339059327384 -0.35355339059327384 -0.8660254037844389 0.35355339059327384 -0.35355339059327384 -0.8660254037844389
          0.46193976625564337 -0.19134171618254492 -0.8660254037844388 0.49999999999999994 0 -0.8660254037844387
          -0.49999999999999994 0 -0.8660254037844387 -0.46193976625564326 -0.19134171618254497 -0.8660254037844389
          -0.3535533905932736 -0.35355339059327384 -0.8660254037844388 -0.3535533905932736 -0.35355339059327384 -0.8660254037844388
          -0.19134171618254472 -0.46193976625564337 -0.8660254037844385 0 -0.5 -0.8660254037844388
          0 0.9999999999999999 0 0 0.9999999999999999 0
          0 0.9999999999999999 0 0 0.9999999999999999 0
          0 0.9999999999999999 0 0 0.9999999999999999 0
          0 0.5 -0.8660254037844388 -0.19134171618254514 0.46193976625564326 -0.8660254037844386
          -0.35355339059327395 0.3535533905932736 -0.8660254037844387 -0.35355339059327395 0.3535533905932736 -0.8660254037844387
          -0.4619397662556435 0.19134171618254484 -0.8660254037844387 -0.49999999999999994 0 -0.8660254037844387
          0.49999999999999994 0 -0.8660254037844387 0.46193976625564304 0.19134171618254536 -0.8660254037844385
          0.3535533905932735 0.35355339059327395 -0.8660254037844387 0.3535533905932735 0.35355339059327395 -0.8660254037844387
          0.1913417161825448 0.4619397662556433 -0.8660254037844386 0 0.49999999999999994 -0.8660254037844387
          0 -1 0 0 -1 0
          0 -1 0 0 -1 0
          0 -1 0 0 -1 0
          0 0.4999999999999999 -0.8660254037844387 -0.19134171618254475 0.46193976625564326 -0.8660254037844386
          -0.3535533905932737 0.35355339059327373 -0.866025403784439 -0.3535533905932737 0.35355339059327373 -0.866025403784439
          -0.46193976625564326 0.19134171618254486 -0.8660254037844387 -0.4999999999999999 0 -0.8660254037844388
          0.49999999999999994 0 -0.8660254037844387 0.46193976625564337 0.19134171618254486 -0.8660254037844388
          0.35355339059327384 0.35355339059327373 -0.8660254037844388 0.35355339059327384 0.35355339059327373 -0.8660254037844388
          0.19134171618254492 0.46193976625564326 -0.8660254037844386 0 0.49999999999999994 -0.8660254037844387
          -0.9999999999999998 0 0 -0.9999999999999998 0 0
          -0.9999999999999998 0 0 -0.9999999999999998 0 0
          -0.9999999999999998 0 0 -0.9999999999999998 0 0
          0 -0.4999999999999999 -0.8660254037844387 0.19134171618254506 -0.46193976625564315 -0.8660254037844386
          0.35355339059327384 -0.3535533905932735 -0.8660254037844388 0.35355339059327384 -0.3535533905932735 -0.8660254037844388
          0.46193976625564326 -0.1913417161825448 -0.8660254037844388 0.4999999999999999 0 -0.8660254037844387
          -0.49999999999999994 0 -0.8660254037844387 -0.4619397662556431 -0.19134171618254525 -0.8660254037844385
          -0.3535533905932736 -0.35355339059327384 -0.8660254037844386 -0.3535533905932736 -0.35355339059327384 -0.8660254037844386
          -0.19134171618254492 -0.46193976625564326 -0.8660254037844386 0 -0.5 -0.8660254037844387
          0.9999999999999998 0 0 0.9999999999999998 0 0
          0.9999999999999998 0 0 0.9999999999999998 0 0
          0.9999999999999998 0 0 0.9999999999999998 0 0
          0 -0.5 -0.8660254037844387 0.19134171618254467 -0.46193976625564337 -0.8660254037844385
          0.35355339059327373 -0.35355339059327384 -0.8660254037844389 0.35355339059327373 -0.35355339059327384 -0.8660254037844389
          0.46193976625564337 -0.191341716182545 -0.8660254037844388 0.49999999999999994 0 -0.8660254037844387
          -0.4999999999999999 0 -0.8660254037844388 -0.46193976625564326 -0.19134171618254486 -0.8660254037844388
          -0.3535533905932737 -0.35355339059327373 -0.8660254037844388 -0.3535533905932737 -0.35355339059327373 -0.8660254037844388
          -0.19134171618254478 -0.46193976625564326 -0.8660254037844386 0 -0.4999999999999999 -0.8660254037844387
          0 0.9999999999999999 0 0 0.9999999999999999 0
          0 0.9999999999999999 0 0 0.9999999999999999 0
          0 0.9999999999999999 0 0 0.9999999999999999 0
          0 0.49999999999999994 -0.8660254037844387 -0.191341716182545 0.46193976625564326 -0.8660254037844386
          -0.35355339059327384 0.3535533905932736 -0.8660254037844388 -0.35355339059327384 0.3535533905932736 -0.8660254037844388
          -0.46193976625564326 0.19134171618254486 -0.8660254037844388 -0.49999999999999994 0 -0.8660254037844387
          0.4999999999999999 0 -0.8660254037844387 0.4619397662556429 0.1913417161825453 -0.8660254037844386
          0.3535533905932735 0.35355339059327384 -0.8660254037844387 0.3535533905932735 0.35355339059327384 -0.8660254037844387
          0.1913417161825448 0.4619397662556432 -0.8660254037844386 0 0.4999999999999999 -0.8660254037844387
          0 -1 0 0 -1 0
          0 -1 0 0 -1 0
          0 -1 0 0 -1 0
          0 0.4999999999999999 -0.8660254037844387 -0.19134171618254475 0.46193976625564326 -0.8660254037844386
          -0.3535533905932737 0.35355339059327373 -0.866025403784439 -0.3535533905932737 0.35355339059327373 -0.866025403784439
          -0.46193976625564326 0.19134171618254486 -0.8660254037844387 -0.4999999999999999 0 -0.8660254037844388
          0.49999999999999994 0 -0.8660254037844387 0.46193976625564337 0.19134171618254486 -0.8660254037844388
          0.35355339059327384 0.35355339059327373 -0.8660254037844388 0.35355339059327384 0.35355339059327373 -0.8660254037844388
          0.19134171618254492 0.46193976625564326 -0.8660254037844386 0 0.49999999999999994 -0.8660254037844387
          0 -0.4999999999999999 -0.8660254037844387 0.19134171618254506 -0.46193976625564315 -0.8660254037844386
          0.35355339059327384 -0.3535533905932735 -0.8660254037844388 0.35355339059327384 -0.3535533905932735 -0.8660254037844388
          0.46193976625564326 -0.1913417161825448 -0.8660254037844388 0.4999999999999999 0 -0.8660254037844387
          -0.49999999999999994 0 -0.8660254037844387 -0.4619397662556431 -0.19134171618254525 -0.8660254037844385
          -0.3535533905932736 -0.35355339059327384 -0.8660254037844386 -0.3535533905932736 -0.35355339059327384 -0.8660254037844386
          -0.19134171618254492 -0.46193976625564326 -0.8660254037844386 0 -0.5 -0.8660254037844387
          <InformationKey name="L2_NORM_RANGE" location="vtkDataArray" length="2">
            <Value index="0">
              1
            </Value>
            <Value index="1">
              1
            </Value>
          </InformationKey>
        </DataArray>
      </PointData>
      <CellData>
        <DataArray type="Float64" Name="cross_section_radius" format="ascii" RangeMin="0.05" RangeMax="0.05">
          0.05 0.05 0.05 0.05 0.05 0.05
          0.05 0.05 0.05 0.05 0.05 0.05
          0.05 0.05 0.05 0.05 0.05 0.05
          0.05 0.05 0.05 0.05 0.05 0.05
          0.05 0.05 0.05 0.05 0.05 0.05
          0.05 0.05 0.05 0.05 0.05 0.05
          0.05 0.05 0.05 0.05 0.05 0.05
          0.05 0.05
        </DataArray>
      </CellData>
      <Points>
        <DataArray type="Float32" Name="Points" NumberOfComponents="3" format="ascii" RangeMin="1" RangeMax="9.123962748567992">
          1 0 0.9068997 0.9238795 0.38268343 0.68017477
          0.70710677 0.70710677 0.45344985 0.70710677 0.70710677 0.45344985
          0.38268343 0.9238795 0.22672492 -3.8285688e-16 1 0
          -3.8285688e-16 1 0 -0.38268343 0.9238795 0.22672492
          -0.70710677 0.70710677 0.45344985 -0.70710677 0.70710677 0.45344985
          -0.9238795 0.38268343 0.68017477 -1 -7.6571376e-16 0.9068997
          1 0 0.9068997 1 0 1.3603495
          1 0 1.8137994 1 0 1.8137994
          1 0 2.267249 1 0 2.720699
          -1 -7.6571376e-16 0.9068997 -0.9238795 -0.38268343 0.68017477
          -0.70710677 -0.70710677 0.45344985 -0.70710677 -0.70710677 0.45344985
          -0.38268343 -0.9238795 0.22672492 7.044814e-16 -1 0
          7.044814e-16 -1 0 0.38268343 -0.9238795 0.22672492
          0.70710677 -0.70710677 0.45344985 0.70710677 -0.70710677 0.45344985
          0.9238795 -0.38268343 0.68017477 1 1.5314275e-15 0.9068997
          -1 -7.6571376e-16 0.9068997 -1 -7.6571376e-16 1.3603495
          -1 -7.6571376e-16 1.8137994 -1 -7.6571376e-16 1.8137994
          -1 -7.6571376e-16 2.267249 -1 -7.6571376e-16 2.720699
          1 0 2.720699 0.9238795 0.38268343 2.947424
          0.70710677 0.70710677 3.1741488 0.70710677 0.70710677 3.1741488
          0.38268343 0.9238795 3.400874 -3.8285688e-16 1 3.6275988
          -3.8285688e-16 1 3.6275988 -0.38268343 0.9238795 3.400874
          -0.70710677 0.70710677 3.1741488 -0.70710677 0.70710677 3.1741488
          -0.9238795 0.38268343 2.947424 -1 -7.6571376e-16 2.720699
          -3.8285688e-16 1 3.6275988 -3.8285688e-16 1 4.0810485
          -3.8285688e-16 1 4.534498 -3.8285688e-16 1 4.534498
          -3.8285688e-16 1 4.9879484 -3.8285688e-16 1 5.441398
          -1 -7.6571376e-16 2.720699 -0.9238795 -0.38268343 2.947424
          -0.70710677 -0.70710677 3.1741488 -0.70710677 -0.70710677 3.1741488
          -0.38268343 -0.9238795 3.400874 7.044814e-16 -1 3.6275988
          7.044814e-16 -1 3.6275988 0.38268343 -0.9238795 3.400874
          0.70710677 -0.70710677 3.1741488 0.70710677 -0.70710677 3.1741488
          0.9238795 -0.38268343 2.947424 1 1.5314275e-15 2.720699
          7.044814e-16 -1 3.6275988 7.044814e-16 -1 4.0810485
          7.044814e-16 -1 4.534498 7.044814e-16 -1 4.534498
          7.044814e-16 -1 4.9879484 7.044814e-16 -1 5.441398
          1 0 6.3482976 0.9238795 0.38268343 6.121573
          0.70710677 0.70710677 5.894848 0.70710677 0.70710677 5.894848
          0.38268343 0.9238795 5.6681232 -3.8285688e-16 1 5.441398
          -3.8285688e-16 1 5.441398 -0.38268343 0.9238795 5.6681232
          -0.70710677 0.70710677 5.894848 -0.70710677 0.70710677 5.894848
          -0.9238795 0.38268343 6.121573 -1 -7.6571376e-16 6.3482976
          1 0 6.3482976 1 0 6.801748
          1 0 7.2551975 1 0 7.2551975
          1 0 7.7086473 1 0 8.162097
          -1 -7.6571376e-16 6.3482976 -0.9238795 -0.38268343 6.121573
          -0.70710677 -0.70710677 5.894848 -0.70710677 -0.70710677 5.894848
          -0.38268343 -0.9238795 5.6681232 7.044814e-16 -1 5.441398
          7.044814e-16 -1 5.441398 0.38268343 -0.9238795 5.6681232
          0.70710677 -0.70710677 5.894848 0.70710677 -0.70710677 5.894848
          0.9238795 -0.38268343 6.121573 1 1.5314275e-15 6.3482976
          -1 -7.6571376e-16 6.3482976 -1 -7.6571376e-16 6.801748
          -1 -7.6571376e-16 7.2551975 -1 -7.6571376e-16 7.2551975
          -1 -7.6571376e-16 7.7086473 -1 -7.6571376e-16 8.162097
          1 0 8.162097 0.9238795 0.38268343 8.388822
          0.70710677 0.70710677 8.615547 0.70710677 0.70710677 8.615547
          0.38268343 0.9238795 8.842272 -3.8285688e-16 1 9.068996
          -3.8285688e-16 1 9.068996 -0.38268343 0.9238795 8.842272
          -0.70710677 0.70710677 8.615547 -0.70710677 0.70710677 8.615547
          -0.9238795 0.38268343 8.388822 -1 -7.6571376e-16 8.162097
          -1 -7.6571376e-16 8.162097 -0.9238795 -0.38268343 8.388822
          -0.70710677 -0.70710677 8.615547 -0.70710677 -0.70710677 8.615547
          -0.38268343 -0.9238795 8.842272 7.044814e-16 -1 9.068996
          7.044814e-16 -1 9.068996 0.38268343 -0.9238795 8.842272
          0.70710677 -0.70710677 8.615547 0.70710677 -0.70710677 8.615547
          0.9238795 -0.38268343 8.388822 1 1.5314275e-15 8.162097
          <InformationKey name="L2_NORM_RANGE" location="vtkDataArray" length="2">
            <Value index="0">
              1
            </Value>
            <Value index="1">
              9.1239627486
            </Value>
          </InformationKey>
        </DataArray>
      </Points>
      <Cells>
        <DataArray type="Int64" Name="connectivity" format="ascii" RangeMin="0" RangeMax="131">
          0 1 2 3 4 5
          6 7 8 9 10 11
          12 13 14 15 16 17
          18 19 20 21 22 23
          24 25 26 27 28 29
          30 31 32 33 34 35
          36 37 38 39 40 41
          42 43 44 45 46 47
          48 49 50 51 52 53
          54 55 56 57 58 59
          60 61 62 63 64 65
          66 67 68 69 70 71
          72 73 74 75 76 77
          78 79 80 81 82 83
          84 85 86 87 88 89
          90 91 92 93 94 95
          96 97 98 99 100 101
          102 103 104 105 106 107
          108 109 110 111 112 113
          114 115 116 117 118 119
          120 121 122 123 124 125
          126 127 128 129 130 131
        </DataArray>
        <DataArray type="Int64" Name="offsets" format="ascii" RangeMin="3" RangeMax="132">
          3 6 9 12 15 18
          21 24 27 30 33 36
          39 42 45 48 51 54
          57 60 63 66 69 72
          75 78 81 84 87 90
          93 96 99 102 105 108
          111 114 117 120 123 126
          129 132
        </DataArray>
        <DataArray type="UInt8" Name="types" format="ascii" RangeMin="4" RangeMax="4">
          4 4 4 4 4 4
          4 4 4 4 4 4
          4 4 4 4 4 4
          4 4 4 4 4 4
          4 4 4 4 4 4
          4 4 4 4 4 4
          4 4 4 4 4 4
          4 4
        </DataArray>
      </Cells>
    </Piece>
  </UnstructuredGrid>
</VTKFile>
