<?xml version="1.0"?>
<VTKFile type="UnstructuredGrid" version="0.1" byte_order="LittleEndian" header_type="UInt32" compressor="vtkZLibDataCompressor">
  <UnstructuredGrid>
    <Piece NumberOfPoints="132" NumberOfCells="44">
      <PointData>
        <DataArray type="Float64" Name="base_vector_3" NumberOfComponents="3" format="ascii" RangeMin="1" RangeMax="1">
          0 -0.5 -0.86602540378 0.19134171618 -0.46193976626 -0.86602540378
          0.35355339059 -0.35355339059 -0.86602540378 0.35355339059 -0.35355339059 -0.86602540378
          0.46193976626 -0.19134171618 -0.86602540378 0.5 0 -0.86602540378
          -0.5 0 -0.86602540378 -0.46193976626 -0.19134171618 -0.86602540378
          -0.35355339059 -0.35355339059 -0.86602540378 -0.35355339059 -0.35355339059 -0.86602540378
          -0.19134171618 -0.46193976626 -0.86602540378 0 -0.5 -0.86602540378
          0 1 0 0 1 0
          0 1 0 0 1 0
          0 1 0 0 1 0
          0 0.5 -0.86602540378 -0.19134171618 0.46193976626 -0.86602540378
          -0.35355339059 0.35355339059 -0.86602540378 -0.35355339059 0.35355339059 -0.86602540378
          -0.46193976626 0.19134171618 -0.86602540378 -0.5 0 -0.86602540378
          0.5 0 -0.86602540378 0.46193976626 0.19134171618 -0.86602540378
          0.35355339059 0.35355339059 -0.86602540378 0.35355339059 0.35355339059 -0.86602540378
          0.19134171618 0.46193976626 -0.86602540378 0 0.5 -0.86602540378
          0 -1 0 0 -1 0
          0 -1 0 0 -1 0
          0 -1 0 0 -1 0
          0 0.5 -0.86602540378 -0.19134171618 0.46193976626 -0.86602540378
          -0.35355339059 0.35355339059 -0.86602540378 -0.35355339059 0.35355339059 -0.86602540378
          -0.46193976626 0.19134171618 -0.86602540378 -0.5 0 -0.86602540378
          0.5 0 -0.86602540378 0.46193976626 0.19134171618 -0.86602540378
          0.35355339059 0.35355339059 -0.86602540378 0.35355339059 0.35355339059 -0.86602540378
          0.19134171618 0.46193976626 -0.86602540378 0 0.5 -0.86602540378
          -1 0 0 -1 0 0
          -1 0 0 -1 0 0
          -1 0 0 -1 0 0
          0 -0.5 -0.86602540378 0.19134171618 -0.46193976626 -0.86602540378
          0.35355339059 -0.35355339059 -0.86602540378 0.35355339059 -0.35355339059 -0.86602540378
          0.46193976626 -0.19134171618 -0.86602540378 0.5 0 -0.86602540378
          -0.5 0 -0.86602540378 -0.46193976626 -0.19134171618 -0.86602540378
          -0.35355339059 -0.35355339059 -0.86602540378 -0.35355339059 -0.35355339059 -0.86602540378
          -0.19134171618 -0.46193976626 -0.86602540378 0 -0.5 -0.86602540378
          1 0 0 1 0 0
          1 0 0 1 0 0
          1 0 0 1 0 0
          0 -0.5 -0.86602540378 0.19134171618 -0.46193976626 -0.86602540378
          0.35355339059 -0.35355339059 -0.86602540378 0.35355339059 -0.35355339059 -0.86602540378
          0.46193976626 -0.19134171618 -0.86602540378 0.5 0 -0.86602540378
          -0.5 0 -0.86602540378 -0.46193976626 -0.19134171618 -0.86602540378
          -0.35355339059 -0.35355339059 -0.86602540378 -0.35355339059 -0.35355339059 -0.86602540378
          -0.19134171618 -0.46193976626 -0.86602540378 0 -0.5 -0.86602540378
          0 1 0 0 1 0
          0 1 0 0 1 0
          0 1 0 0 1 0
          0 0.5 -0.86602540378 -0.19134171618 0.46193976626 -0.86602540378
          -0.35355339059 0.35355339059 -0.86602540378 -0.35355339059 0.35355339059 -0.86602540378
          -0.46193976626 0.19134171618 -0.86602540378 -0.5 0 -0.86602540378
          0.5 0 -0.86602540378 0.46193976626 0.19134171618 -0.86602540378
          0.35355339059 0.35355339059 -0.86602540378 0.35355339059 0.35355339059 -0.86602540378
          0.19134171618 0.46193976626 -0.86602540378 0 0.5 -0.86602540378
          0 -1 0 0 -1 0
          0 -1 0 0 -1 0
          0 -1 0 0 -1 0
          0 0.5 -0.86602540378 -0.19134171618 0.46193976626 -0.86602540378
          -0.35355339059 0.35355339059 -0.86602540378 -0.35355339059 0.35355339059 -0.86602540378
          -0.46193976626 0.19134171618 -0.86602540378 -0.5 0 -0.86602540378
          0.5 0 -0.86602540378 0.46193976626 0.19134171618 -0.86602540378
          0.35355339059 0.35355339059 -0.86602540378 0.35355339059 0.35355339059 -0.86602540378
          0.19134171618 0.46193976626 -0.86602540378 0 0.5 -0.86602540378
          0 -0.5 -0.86602540378 0.19134171618 -0.46193976626 -0.86602540378
          0.35355339059 -0.35355339059 -0.86602540378 0.35355339059 -0.35355339059 -0.86602540378
          0.46193976626 -0.19134171618 -0.86602540378 0.5 0 -0.86602540378
          -0.5 0 -0.86602540378 -0.46193976626 -0.19134171618 -0.86602540378
          -0.35355339059 -0.35355339059 -0.86602540378 -0.35355339059 -0.35355339059 -0.86602540378
          -0.19134171618 -0.46193976626 -0.86602540378 0 -0.5 -0.86602540378
        </DataArray>
        <DataArray type="Float64" Name="base_vector_1" NumberOfComponents="3" format="ascii" RangeMin="1" RangeMax="1">
          0 0.86602540378 -0.5 -0.33141357404 0.80010314519 -0.5
          -0.6123724357 0.6123724357 -0.5 -0.6123724357 0.6123724357 -0.5
          -0.80010314519 0.33141357404 -0.5 -0.86602540378 0 -0.5
          -0.86602540378 0 0.5 -0.80010314519 -0.33141357404 0.5
          -0.6123724357 -0.6123724357 0.5 -0.6123724357 -0.6123724357 0.5
          -0.33141357404 -0.80010314519 0.5 0 -0.86602540378 0.5
          0 0 1 0 0 1
          0 0 1 0 0 1
          0 0 1 0 0 1
          0 -0.86602540378 -0.5 0.33141357404 -0.80010314519 -0.5
          0.6123724357 -0.6123724357 -0.5 0.6123724357 -0.6123724357 -0.5
          0.80010314519 -0.33141357404 -0.5 0.86602540378 0 -0.5
          0.86602540378 0 0.5 0.80010314519 0.33141357404 0.5
          0.6123724357 0.6123724357 0.5 0.6123724357 0.6123724357 0.5
          0.33141357404 0.80010314519 0.5 0 0.86602540378 0.5
          0 0 1 0 0 1
          0 0 1 0 0 1
          0 0 1 0 0 1
          0 0.86602540378 0.5 -0.33141357404 0.80010314519 0.5
          -0.6123724357 0.6123724357 0.5 -0.6123724357 0.6123724357 0.5
          -0.80010314519 0.33141357404 0.5 -0.86602540378 0 0.5
          -0.86602540378 0 -0.5 -0.80010314519 -0.33141357404 -0.5
          -0.6123724357 -0.6123724357 -0.5 -0.6123724357 -0.6123724357 -0.5
          -0.33141357404 -0.80010314519 -0.5 0 -0.86602540378 -0.5
          0 0 1 0 0 1
          0 0 1 0 0 1
          0 0 1 0 0 1
          0 -0.86602540378 0.5 0.33141357404 -0.80010314519 0.5
          0.6123724357 -0.6123724357 0.5 0.6123724357 -0.6123724357 0.5
          0.80010314519 -0.33141357404 0.5 0.86602540378 0 0.5
          0.86602540378 0 -0.5 0.80010314519 0.33141357404 -0.5
          0.6123724357 0.6123724357 -0.5 0.6123724357 0.6123724357 -0.5
          0.33141357404 0.80010314519 -0.5 0 0.86602540378 -0.5
          0 0 1 0 0 1
          0 0 1 0 0 1
          0 0 1 0 0 1
          0 0.86602540378 -0.5 -0.33141357404 0.80010314519 -0.5
          -0.6123724357 0.6123724357 -0.5 -0.6123724357 0.6123724357 -0.5
          -0.80010314519 0.33141357404 -0.5 -0.86602540378 0 -0.5
          -0.86602540378 0 0.5 -0.80010314519 -0.33141357404 0.5
          -0.6123724357 -0.6123724357 0.5 -0.6123724357 -0.6123724357 0.5
          -0.33141357404 -0.80010314519 0.5 0 -0.86602540378 0.5
          0 0 1 0 0 1
          0 0 1 0 0 1
          0 0 1 0 0 1
          0 -0.86602540378 -0.5 0.33141357404 -0.80010314519 -0.5
          0.6123724357 -0.6123724357 -0.5 0.6123724357 -0.6123724357 -0.5
          0.80010314519 -0.33141357404 -0.5 0.86602540378 0 -0.5
          0.86602540378 0 0.5 0.80010314519 0.33141357404 0.5
          0.6123724357 0.6123724357 0.5 0.6123724357 0.6123724357 0.5
          0.33141357404 0.80010314519 0.5 0 0.86602540378 0.5
          0 0 1 0 0 1
          0 0 1 0 0 1
          0 0 1 0 0 1
          0 0.86602540378 0.5 -0.33141357404 0.80010314519 0.5
          -0.6123724357 0.6123724357 0.5 -0.6123724357 0.6123724357 0.5
          -0.80010314519 0.33141357404 0.5 -0.86602540378 0 0.5
          -0.86602540378 0 -0.5 -0.80010314519 -0.33141357404 -0.5
          -0.6123724357 -0.6123724357 -0.5 -0.6123724357 -0.6123724357 -0.5
          -0.33141357404 -0.80010314519 -0.5 0 -0.86602540378 -0.5
          0 -0.86602540378 0.5 0.33141357404 -0.80010314519 0.5
          0.6123724357 -0.6123724357 0.5 0.6123724357 -0.6123724357 0.5
          0.80010314519 -0.33141357404 0.5 0.86602540378 0 0.5
          0.86602540378 0 -0.5 0.80010314519 0.33141357404 -0.5
          0.6123724357 0.6123724357 -0.5 0.6123724357 0.6123724357 -0.5
          0.33141357404 0.80010314519 -0.5 0 0.86602540378 -0.5
        </DataArray>
        <DataArray type="Float64" Name="base_vector_2" NumberOfComponents="3" format="ascii" RangeMin="1" RangeMax="1">
          1 0 0 0.92387953251 0.38268343237 0
          0.70710678119 0.70710678119 0 0.70710678119 0.70710678119 0
          0.38268343237 0.92387953251 0 0 1 0
          0 1 0 -0.38268343237 0.92387953251 0
          -0.70710678119 0.70710678119 0 -0.70710678119 0.70710678119 0
          -0.92387953251 0.38268343237 0 -1 0 0
          1 0 0 1 0 0
          1 0 0 1 0 0
          1 0 0 1 0 0
          -1 0 0 -0.92387953251 -0.38268343237 0
          -0.70710678119 -0.70710678119 0 -0.70710678119 -0.70710678119 0
          -0.38268343237 -0.92387953251 0 0 -1 0
          0 -1 0 0.38268343237 -0.92387953251 0
          0.70710678119 -0.70710678119 0 0.70710678119 -0.70710678119 0
          0.92387953251 -0.38268343237 0 1 0 0
          -1 0 0 -1 0 0
          -1 0 0 -1 0 0
          -1 0 0 -1 0 0
          1 0 0 0.92387953251 0.38268343237 0
          0.70710678119 0.70710678119 0 0.70710678119 0.70710678119 0
          0.38268343237 0.92387953251 0 0 1 0
          0 1 0 -0.38268343237 0.92387953251 0
          -0.70710678119 0.70710678119 0 -0.70710678119 0.70710678119 0
          -0.92387953251 0.38268343237 0 -1 0 0
          0 1 0 0 1 0
          0 1 0 0 1 0
          0 1 0 0 1 0
          -1 0 0 -0.92387953251 -0.38268343237 0
          -0.70710678119 -0.70710678119 0 -0.70710678119 -0.70710678119 0
          -0.38268343237 -0.92387953251 0 0 -1 0
          0 -1 0 0.38268343237 -0.92387953251 0
          0.70710678119 -0.70710678119 0 0.70710678119 -0.70710678119 0
          0.92387953251 -0.38268343237 0 1 0 0
          0 -1 0 0 -1 0
          0 -1 0 0 -1 0
          0 -1 0 0 -1 0
          1 0 0 0.92387953251 0.38268343237 0
          0.70710678119 0.70710678119 0 0.70710678119 0.70710678119 0
          0.38268343237 0.92387953251 0 0 1 0
          0 1 0 -0.38268343237 0.92387953251 0
          -0.70710678119 0.70710678119 0 -0.70710678119 0.70710678119 0
          -0.92387953251 0.38268343237 0 -1 0 0
          1 0 0 1 0 0
          1 0 0 1 0 0
          1 0 0 1 0 0
          -1 0 0 -0.92387953251 -0.38268343237 0
          -0.70710678119 -0.70710678119 0 -0.70710678119 -0.70710678119 0
          -0.38268343237 -0.92387953251 0 0 -1 0
          0 -1 0 0.38268343237 -0.92387953251 0
          0.70710678119 -0.70710678119 0 0.70710678119 -0.70710678119 0
          0.92387953251 -0.38268343237 0 1 0 0
          -1 0 0 -1 0 0
          -1 0 0 -1 0 0
          -1 0 0 -1 0 0
          1 0 0 0.92387953251 0.38268343237 0
          0.70710678119 0.70710678119 0 0.70710678119 0.70710678119 0
          0.38268343237 0.92387953251 0 0 1 0
          0 1 0 -0.38268343237 0.92387953251 0
          -0.70710678119 0.70710678119 0 -0.70710678119 0.70710678119 0
          -0.92387953251 0.38268343237 0 -1 0 0
          -1 0 0 -0.92387953251 -0.38268343237 0
          -0.70710678119 -0.70710678119 0 -0.70710678119 -0.70710678119 0
          -0.38268343237 -0.92387953251 0 0 -1 0
          0 -1 0 0.38268343237 -0.92387953251 0
          0.70710678119 -0.70710678119 0 0.70710678119 -0.70710678119 0
          0.92387953251 -0.38268343237 0 1 0 0
        </DataArray>
        <DataArray type="Float64" Name="geometry_point_set_2" format="ascii" RangeMin="0" RangeMax="1">
          0 0 0 0 0 1
          1 0 0 0 0 0
          0 0 0 0 0 0
          0 0 0 0 0 1
          1 0 0 0 0 0
          0 0 0 0 0 0
          0 0 0 0 0 0
          0 0 0 0 0 0
          0 0 0 0 0 0
          0 0 0 0 0 0
          0 0 0 0 0 0
          0 0 0 0 0 0
          0 0 0 0 0 0
          0 0 0 0 0 0
          0 0 0 0 0 0
          0 0 0 0 0 0
          0 0 0 0 0 0
          0 0 0 0 0 0
          0 0 0 0 0 0
          0 0 0 0 0 0
          0 0 0 0 0 0
          0 0 0 0 0 0
        </DataArray>
        <DataArray type="Float64" Name="geometry_point_set_1" format="ascii" RangeMin="0" RangeMax="1">
          0 0 0 0 0 0
          0 0 0 0 0 0
          0 0 0 0 0 0
          0 0 0 0 0 0
          0 0 0 0 0 0
          0 0 0 0 0 0
          0 0 0 0 0 0
          0 0 0 0 0 0
          0 0 0 0 0 0
          0 0 0 0 0 0
          0 0 0 0 0 0
          0 0 0 0 0 0
          0 0 0 0 0 0
          0 0 0 0 0 0
          0 0 0 0 0 0
          0 0 0 0 0 0
          0 0 0 0 0 0
          0 0 0 0 0 0
          0 0 0 0 0 1
          1 0 0 0 0 0
          0 0 0 0 0 1
          1 0 0 0 0 0
        </DataArray>
        <DataArray type="Float64" Name="node_value" format="ascii" RangeMin="0.5" RangeMax="1">
          1 0.5 1 1 0.5 1
          1 0.5 1 1 0.5 1
          1 0.5 1 1 0.5 1
          1 0.5 1 1 0.5 1
          1 0.5 1 1 0.5 1
          1 0.5 1 1 0.5 1
          1 0.5 1 1 0.5 1
          1 0.5 1 1 0.5 1
          1 0.5 1 1 0.5 1
          1 0.5 1 1 0.5 1
          1 0.5 1 1 0.5 1
          1 0.5 1 1 0.5 1
          1 0.5 1 1 0.5 1
          1 0.5 1 1 0.5 1
          1 0.5 1 1 0.5 1
          1 0.5 1 1 0.5 1
          1 0.5 1 1 0.5 1
          1 0.5 1 1 0.5 1
          1 0.5 1 1 0.5 1
          1 0.5 1 1 0.5 1
          1 0.5 1 1 0.5 1
          1 0.5 1 1 0.5 1
        </DataArray>
        <DataArray type="Float64" Name="geometry_line_set_1" format="ascii" RangeMin="1" RangeMax="1">
          1 1 1 1 1 1
          1 1 1 1 1 1
          1 1 1 1 1 1
          1 1 1 1 1 1
          1 1 1 1 1 1
          1 1 1 1 1 1
          1 1 1 1 1 1
          1 1 1 1 1 1
          1 1 1 1 1 1
          1 1 1 1 1 1
          1 1 1 1 1 1
          1 1 1 1 1 1
          1 1 1 1 1 1
          1 1 1 1 1 1
          1 1 1 1 1 1
          1 1 1 1 1 1
          1 1 1 1 1 1
          1 1 1 1 1 1
          1 1 1 1 1 1
          1 1 1 1 1 1
          1 1 1 1 1 1
          1 1 1 1 1 1
        </DataArray>
      </PointData>
      <CellData>
        <DataArray type="Float64" Name="cross_section_radius" format="ascii" RangeMin="0.05" RangeMax="0.05">
          0.05 0.05 0.05 0.05 0.05 0.05
          0.05 0.05 0.05 0.05 0.05 0.05
          0.05 0.05 0.05 0.05 0.05 0.05
          0.05 0.05 0.05 0.05 0.05 0.05
          0.05 0.05 0.05 0.05 0.05 0.05
          0.05 0.05 0.05 0.05 0.05 0.05
          0.05 0.05 0.05 0.05 0.05 0.05
          0.05 0.05
        </DataArray>
      </CellData>
      <Points>
        <DataArray type="Float32" Name="Points" NumberOfComponents="3" format="ascii" RangeMin="1" RangeMax="9.1239627486">
          1 0 0.90689969063 0.9238795042 0.38268342614 0.68017476797
          0.70710676908 0.70710676908 0.45344984531 0.70710676908 0.70710676908 0.45344984531
          0.38268342614 0.9238795042 0.22672492266 -3.8285688046e-16 1 0
          -3.8285688046e-16 1 0 -0.38268342614 0.9238795042 0.22672492266
          -0.70710676908 0.70710676908 0.45344984531 -0.70710676908 0.70710676908 0.45344984531
          -0.9238795042 0.38268342614 0.68017476797 -1 -7.6571376091e-16 0.90689969063
          1 0 0.90689969063 1 0 1.3603495359
          1 0 1.8137993813 1 0 1.8137993813
          1 0 2.2672491074 1 0 2.7206990719
          -1 -7.6571376091e-16 0.90689969063 -0.9238795042 -0.38268342614 0.68017476797
          -0.70710676908 -0.70710676908 0.45344984531 -0.70710676908 -0.70710676908 0.45344984531
          -0.38268342614 -0.9238795042 0.22672492266 7.0448137858e-16 -1 0
          7.0448137858e-16 -1 0 0.38268342614 -0.9238795042 0.22672492266
          0.70710676908 -0.70710676908 0.45344984531 0.70710676908 -0.70710676908 0.45344984531
          0.9238795042 -0.38268342614 0.68017476797 1 1.5314275218e-15 0.90689969063
          -1 -7.6571376091e-16 0.90689969063 -1 -7.6571376091e-16 1.3603495359
          -1 -7.6571376091e-16 1.8137993813 -1 -7.6571376091e-16 1.8137993813
          -1 -7.6571376091e-16 2.2672491074 -1 -7.6571376091e-16 2.7206990719
          1 0 2.7206990719 0.9238795042 0.38268342614 2.9474239349
          0.70710676908 0.70710676908 3.174148798 0.70710676908 0.70710676908 3.174148798
          0.38268342614 0.9238795042 3.4008738995 -3.8285688046e-16 1 3.6275987625
          -3.8285688046e-16 1 3.6275987625 -0.38268342614 0.9238795042 3.4008738995
          -0.70710676908 0.70710676908 3.174148798 -0.70710676908 0.70710676908 3.174148798
          -0.9238795042 0.38268342614 2.9474239349 -1 -7.6571376091e-16 2.7206990719
          -3.8285688046e-16 1 3.6275987625 -3.8285688046e-16 1 4.0810484886
          -3.8285688046e-16 1 4.5344982147 -3.8285688046e-16 1 4.5344982147
          -3.8285688046e-16 1 4.9879484177 -3.8285688046e-16 1 5.4413981438
          -1 -7.6571376091e-16 2.7206990719 -0.9238795042 -0.38268342614 2.9474239349
          -0.70710676908 -0.70710676908 3.174148798 -0.70710676908 -0.70710676908 3.174148798
          -0.38268342614 -0.9238795042 3.4008738995 7.0448137858e-16 -1 3.6275987625
          7.0448137858e-16 -1 3.6275987625 0.38268342614 -0.9238795042 3.4008738995
          0.70710676908 -0.70710676908 3.174148798 0.70710676908 -0.70710676908 3.174148798
          0.9238795042 -0.38268342614 2.9474239349 1 1.5314275218e-15 2.7206990719
          7.0448137858e-16 -1 3.6275987625 7.0448137858e-16 -1 4.0810484886
          7.0448137858e-16 -1 4.5344982147 7.0448137858e-16 -1 4.5344982147
          7.0448137858e-16 -1 4.9879484177 7.0448137858e-16 -1 5.4413981438
          1 0 6.348297596 0.9238795042 0.38268342614 6.1215729713
          0.70710676908 0.70710676908 5.8948478699 0.70710676908 0.70710676908 5.8948478699
          0.38268342614 0.9238795042 5.6681232452 -3.8285688046e-16 1 5.4413981438
          -3.8285688046e-16 1 5.4413981438 -0.38268342614 0.9238795042 5.6681232452
          -0.70710676908 0.70710676908 5.8948478699 -0.70710676908 0.70710676908 5.8948478699
          -0.9238795042 0.38268342614 6.1215729713 -1 -7.6571376091e-16 6.348297596
          1 0 6.348297596 1 0 6.8017477989
          1 0 7.255197525 1 0 7.255197525
          1 0 7.7086472511 1 0 8.1620969772
          -1 -7.6571376091e-16 6.348297596 -0.9238795042 -0.38268342614 6.1215729713
          -0.70710676908 -0.70710676908 5.8948478699 -0.70710676908 -0.70710676908 5.8948478699
          -0.38268342614 -0.9238795042 5.6681232452 7.0448137858e-16 -1 5.4413981438
          7.0448137858e-16 -1 5.4413981438 0.38268342614 -0.9238795042 5.6681232452
          0.70710676908 -0.70710676908 5.8948478699 0.70710676908 -0.70710676908 5.8948478699
          0.9238795042 -0.38268342614 6.1215729713 1 1.5314275218e-15 6.348297596
          -1 -7.6571376091e-16 6.348297596 -1 -7.6571376091e-16 6.8017477989
          -1 -7.6571376091e-16 7.255197525 -1 -7.6571376091e-16 7.255197525
          -1 -7.6571376091e-16 7.7086472511 -1 -7.6571376091e-16 8.1620969772
          1 0 8.1620969772 0.9238795042 0.38268342614 8.3888216019
          0.70710676908 0.70710676908 8.6155471802 0.70710676908 0.70710676908 8.6155471802
          0.38268342614 0.9238795042 8.8422718048 -3.8285688046e-16 1 9.0689964294
          -3.8285688046e-16 1 9.0689964294 -0.38268342614 0.9238795042 8.8422718048
          -0.70710676908 0.70710676908 8.6155471802 -0.70710676908 0.70710676908 8.6155471802
          -0.9238795042 0.38268342614 8.3888216019 -1 -7.6571376091e-16 8.1620969772
          -1 -7.6571376091e-16 8.1620969772 -0.9238795042 -0.38268342614 8.3888216019
          -0.70710676908 -0.70710676908 8.6155471802 -0.70710676908 -0.70710676908 8.6155471802
          -0.38268342614 -0.9238795042 8.8422718048 7.0448137858e-16 -1 9.0689964294
          7.0448137858e-16 -1 9.0689964294 0.38268342614 -0.9238795042 8.8422718048
          0.70710676908 -0.70710676908 8.6155471802 0.70710676908 -0.70710676908 8.6155471802
          0.9238795042 -0.38268342614 8.3888216019 1 1.5314275218e-15 8.1620969772
        </DataArray>
      </Points>
      <Cells>
        <DataArray type="Int64" Name="connectivity" format="ascii" RangeMin="0" RangeMax="131">
          0 1 2 3 4 5
          6 7 8 9 10 11
          12 13 14 15 16 17
          18 19 20 21 22 23
          24 25 26 27 28 29
          30 31 32 33 34 35
          36 37 38 39 40 41
          42 43 44 45 46 47
          48 49 50 51 52 53
          54 55 56 57 58 59
          60 61 62 63 64 65
          66 67 68 69 70 71
          72 73 74 75 76 77
          78 79 80 81 82 83
          84 85 86 87 88 89
          90 91 92 93 94 95
          96 97 98 99 100 101
          102 103 104 105 106 107
          108 109 110 111 112 113
          114 115 116 117 118 119
          120 121 122 123 124 125
          126 127 128 129 130 131
        </DataArray>
        <DataArray type="Int64" Name="offsets" format="ascii" RangeMin="3" RangeMax="132">
          3 6 9 12 15 18
          21 24 27 30 33 36
          39 42 45 48 51 54
          57 60 63 66 69 72
          75 78 81 84 87 90
          93 96 99 102 105 108
          111 114 117 120 123 126
          129 132
        </DataArray>
        <DataArray type="UInt8" Name="types" format="ascii" RangeMin="4" RangeMax="4">
          4 4 4 4 4 4
          4 4 4 4 4 4
          4 4 4 4 4 4
          4 4 4 4 4 4
          4 4 4 4 4 4
          4 4 4 4 4 4
          4 4 4 4 4 4
          4 4
        </DataArray>
      </Cells>
    </Piece>
  </UnstructuredGrid>
</VTKFile>
