<?xml version="1.0"?>
<VTKFile type="UnstructuredGrid" version="0.1" byte_order="LittleEndian" header_type="UInt32" compressor="vtkZLibDataCompressor">
  <UnstructuredGrid>
    <Piece NumberOfPoints="132" NumberOfCells="44">
      <PointData>
        <DataArray type="Float64" Name="node_value" format="ascii" RangeMin="0.5" RangeMax="1">
          1 0.5 1 1 0.5 1
          1 0.5 1 1 0.5 1
          1 0.5 1 1 0.5 1
          1 0.5 1 1 0.5 1
          1 0.5 1 1 0.5 1
          1 0.5 1 1 0.5 1
          1 0.5 1 1 0.5 1
          1 0.5 1 1 0.5 1
          1 0.5 1 1 0.5 1
          1 0.5 1 1 0.5 1
          1 0.5 1 1 0.5 1
          1 0.5 1 1 0.5 1
          1 0.5 1 1 0.5 1
          1 0.5 1 1 0.5 1
          1 0.5 1 1 0.5 1
          1 0.5 1 1 0.5 1
          1 0.5 1 1 0.5 1
          1 0.5 1 1 0.5 1
          1 0.5 1 1 0.5 1
          1 0.5 1 1 0.5 1
          1 0.5 1 1 0.5 1
          1 0.5 1 1 0.5 1
        </DataArray>
        <DataArray type="Int32" Name="geometry_line_set_1" format="ascii" RangeMin="1" RangeMax="1">
          1 1 1 1 1 1
          1 1 1 1 1 1
          1 1 1 1 1 1
          1 1 1 1 1 1
          1 1 1 1 1 1
          1 1 1 1 1 1
          1 1 1 1 1 1
          1 1 1 1 1 1
          1 1 1 1 1 1
          1 1 1 1 1 1
          1 1 1 1 1 1
          1 1 1 1 1 1
          1 1 1 1 1 1
          1 1 1 1 1 1
          1 1 1 1 1 1
          1 1 1 1 1 1
          1 1 1 1 1 1
          1 1 1 1 1 1
          1 1 1 1 1 1
          1 1 1 1 1 1
          1 1 1 1 1 1
          1 1 1 1 1 1
        </DataArray>
        <DataArray type="Int32" Name="geometry_point_set_1" format="ascii" RangeMin="-1" RangeMax="1">
          -1 -1 -1 -1 -1 1
          1 -1 -1 -1 -1 -1
          -1 -1 -1 -1 -1 -1
          -1 -1 -1 -1 -1 1
          1 -1 -1 -1 -1 -1
          -1 -1 -1 -1 -1 -1
          -1 -1 -1 -1 -1 -1
          -1 -1 -1 -1 -1 -1
          -1 -1 -1 -1 -1 -1
          -1 -1 -1 -1 -1 -1
          -1 -1 -1 -1 -1 -1
          -1 -1 -1 -1 -1 -1
          -1 -1 -1 -1 -1 -1
          -1 -1 -1 -1 -1 -1
          -1 -1 -1 -1 -1 -1
          -1 -1 -1 -1 -1 -1
          -1 -1 -1 -1 -1 -1
          -1 -1 -1 -1 -1 -1
          -1 -1 -1 -1 -1 -1
          -1 -1 -1 -1 -1 -1
          -1 -1 -1 -1 -1 -1
          -1 -1 -1 -1 -1 -1
        </DataArray>
        <DataArray type="Int32" Name="geometry_point_set_2" format="ascii" RangeMin="-1" RangeMax="1">
          -1 -1 -1 -1 -1 -1
          -1 -1 -1 -1 -1 -1
          -1 -1 -1 -1 -1 -1
          -1 -1 -1 -1 -1 -1
          -1 -1 -1 -1 -1 -1
          -1 -1 -1 -1 -1 -1
          -1 -1 -1 -1 -1 -1
          -1 -1 -1 -1 -1 -1
          -1 -1 -1 -1 -1 -1
          -1 -1 -1 -1 -1 -1
          -1 -1 -1 -1 -1 -1
          -1 -1 -1 -1 -1 -1
          -1 -1 -1 -1 -1 -1
          -1 -1 -1 -1 -1 -1
          -1 -1 -1 -1 -1 -1
          -1 -1 -1 -1 -1 -1
          -1 -1 -1 -1 -1 -1
          -1 -1 -1 -1 -1 -1
          -1 -1 -1 -1 -1 1
          1 -1 -1 -1 -1 -1
          -1 -1 -1 -1 -1 1
          1 -1 -1 -1 -1 -1
        </DataArray>
        <DataArray type="Float64" Name="base_vector_1" NumberOfComponents="3" format="ascii" RangeMin="0.9999999999999998" RangeMax="1.0000000000000004">
          1.1102230246251565e-16 0.8660254037844387 -0.5 -0.3314135740355917 0.8001031451912655 -0.5
          -0.6123724356957949 0.6123724356957947 -0.5000000000000001 -0.6123724356957949 0.6123724356957947 -0.5000000000000001
          -0.8001031451912657 0.33141357403559174 -0.5 -0.8660254037844387 -2.0011127533102482e-16 -0.49999999999999994
          -0.8660254037844387 -1.8574393217680906e-16 0.49999999999999994 -0.8001031451912657 -0.33141357403559196 0.4999999999999999
          -0.6123724356957946 -0.6123724356957948 0.5 -0.6123724356957946 -0.6123724356957948 0.5
          -0.3314135740355917 -0.8001031451912655 0.4999999999999999 3.3306690738754696e-16 -0.8660254037844387 0.5
          -1.1102230246251565e-16 1.1102230246251565e-16 0.9999999999999999 -1.1102230246251565e-16 1.1102230246251565e-16 0.9999999999999999
          -1.1102230246251565e-16 1.1102230246251565e-16 0.9999999999999999 -1.1102230246251565e-16 1.1102230246251565e-16 0.9999999999999999
          -1.1102230246251565e-16 1.1102230246251565e-16 0.9999999999999999 -1.1102230246251565e-16 1.1102230246251565e-16 0.9999999999999999
          3.3306690738754696e-16 -0.8660254037844387 -0.5 0.33141357403559235 -0.8001031451912654 -0.5
          0.612372435695795 -0.6123724356957942 -0.5 0.612372435695795 -0.6123724356957942 -0.5
          0.8001031451912657 -0.3314135740355917 -0.5000000000000001 0.8660254037844388 6.003338259930744e-16 -0.49999999999999994
          0.8660254037844388 5.859664828388587e-16 0.49999999999999994 0.8001031451912651 0.33141357403559263 0.4999999999999999
          0.6123724356957942 0.6123724356957949 0.5 0.6123724356957942 0.6123724356957949 0.5
          0.3314135740355917 0.8001031451912655 0.4999999999999999 -1.2212453270876722e-15 0.8660254037844387 0.49999999999999994
          0 -5.551115123125783e-17 1 0 -5.551115123125783e-17 1
          0 -5.551115123125783e-17 1 0 -5.551115123125783e-17 1
          0 -5.551115123125783e-17 1 0 -5.551115123125783e-17 1
          1.1102230246251565e-16 0.8660254037844388 0.4999999999999999 -0.3314135740355917 0.8001031451912655 0.49999999999999983
          -0.6123724356957949 0.6123724356957947 0.49999999999999994 -0.6123724356957949 0.6123724356957947 0.49999999999999994
          -0.8001031451912656 0.3314135740355918 0.4999999999999999 -0.8660254037844388 -2.144786184852406e-16 0.4999999999999999
          -0.8660254037844387 -2.288459616394564e-16 -0.49999999999999994 -0.8001031451912657 -0.331413574035592 -0.5
          -0.6123724356957946 -0.6123724356957948 -0.5 -0.6123724356957946 -0.6123724356957948 -0.5
          -0.3314135740355917 -0.8001031451912655 -0.4999999999999999 4.440892098500626e-16 -0.8660254037844387 -0.49999999999999994
          5.546678239835239e-32 -7.850462293418875e-17 0.9999999999999998 5.546678239835239e-32 -7.850462293418875e-17 0.9999999999999998
          5.546678239835239e-32 -7.850462293418875e-17 0.9999999999999998 5.546678239835239e-32 -7.850462293418875e-17 0.9999999999999998
          5.546678239835239e-32 -7.850462293418875e-17 0.9999999999999998 5.546678239835239e-32 -7.850462293418875e-17 0.9999999999999998
          4.440892098500626e-16 -0.8660254037844388 0.4999999999999999 0.33141357403559235 -0.8001031451912655 0.4999999999999999
          0.612372435695795 -0.6123724356957942 0.4999999999999999 0.612372435695795 -0.6123724356957942 0.4999999999999999
          0.8001031451912657 -0.3314135740355917 0.4999999999999999 0.8660254037844388 6.147011691472903e-16 0.4999999999999999
          0.8660254037844388 6.290685123015061e-16 -0.49999999999999994 0.8001031451912651 0.3314135740355927 -0.49999999999999983
          0.6123724356957942 0.6123724356957949 -0.4999999999999999 0.6123724356957942 0.6123724356957949 -0.4999999999999999
          0.3314135740355917 0.8001031451912655 -0.4999999999999999 -1.2212453270876722e-15 0.8660254037844387 -0.49999999999999994
          0 7.850462293418875e-17 0.9999999999999998 0 7.850462293418875e-17 0.9999999999999998
          0 7.850462293418875e-17 0.9999999999999998 0 7.850462293418875e-17 0.9999999999999998
          0 7.850462293418875e-17 0.9999999999999998 0 7.850462293418875e-17 0.9999999999999998
          1.1102230246251565e-16 0.8660254037844387 -0.49999999999999994 -0.3314135740355917 0.8001031451912655 -0.4999999999999999
          -0.6123724356957949 0.6123724356957947 -0.5 -0.6123724356957949 0.6123724356957947 -0.5
          -0.8001031451912657 0.33141357403559174 -0.5 -0.8660254037844387 -2.288459616394564e-16 -0.49999999999999994
          -0.8660254037844388 -2.144786184852406e-16 0.4999999999999999 -0.8001031451912657 -0.331413574035592 0.4999999999999999
          -0.6123724356957946 -0.6123724356957948 0.49999999999999994 -0.6123724356957946 -0.6123724356957948 0.49999999999999994
          -0.3314135740355917 -0.8001031451912655 0.4999999999999998 4.440892098500626e-16 -0.8660254037844388 0.4999999999999999
          -1.1102230246251565e-16 1.1102230246251565e-16 0.9999999999999999 -1.1102230246251565e-16 1.1102230246251565e-16 0.9999999999999999
          -1.1102230246251565e-16 1.1102230246251565e-16 0.9999999999999999 -1.1102230246251565e-16 1.1102230246251565e-16 0.9999999999999999
          -1.1102230246251565e-16 1.1102230246251565e-16 0.9999999999999999 -1.1102230246251565e-16 1.1102230246251565e-16 0.9999999999999999
          4.440892098500626e-16 -0.8660254037844387 -0.49999999999999994 0.33141357403559235 -0.8001031451912654 -0.4999999999999999
          0.612372435695795 -0.6123724356957942 -0.4999999999999999 0.612372435695795 -0.6123724356957942 -0.4999999999999999
          0.8001031451912657 -0.3314135740355917 -0.4999999999999999 0.8660254037844388 6.290685123015061e-16 -0.49999999999999994
          0.8660254037844388 6.147011691472903e-16 0.4999999999999999 0.8001031451912651 0.3314135740355927 0.4999999999999998
          0.6123724356957942 0.6123724356957949 0.4999999999999999 0.6123724356957942 0.6123724356957949 0.4999999999999999
          0.3314135740355917 0.8001031451912656 0.4999999999999998 -1.2212453270876722e-15 0.8660254037844388 0.4999999999999999
          0 -5.551115123125783e-17 1 0 -5.551115123125783e-17 1
          0 -5.551115123125783e-17 1 0 -5.551115123125783e-17 1
          0 -5.551115123125783e-17 1 0 -5.551115123125783e-17 1
          1.1102230246251565e-16 0.8660254037844388 0.4999999999999999 -0.3314135740355917 0.8001031451912655 0.49999999999999983
          -0.6123724356957949 0.6123724356957947 0.49999999999999994 -0.6123724356957949 0.6123724356957947 0.49999999999999994
          -0.8001031451912656 0.3314135740355918 0.4999999999999999 -0.8660254037844388 -2.144786184852406e-16 0.4999999999999999
          -0.8660254037844387 -2.288459616394564e-16 -0.49999999999999994 -0.8001031451912657 -0.331413574035592 -0.5
          -0.6123724356957946 -0.6123724356957948 -0.5 -0.6123724356957946 -0.6123724356957948 -0.5
          -0.3314135740355917 -0.8001031451912655 -0.4999999999999999 4.440892098500626e-16 -0.8660254037844387 -0.49999999999999994
          4.440892098500626e-16 -0.8660254037844388 0.4999999999999999 0.33141357403559235 -0.8001031451912655 0.4999999999999999
          0.612372435695795 -0.6123724356957942 0.4999999999999999 0.612372435695795 -0.6123724356957942 0.4999999999999999
          0.8001031451912657 -0.3314135740355917 0.4999999999999999 0.8660254037844388 6.147011691472903e-16 0.4999999999999999
          0.8660254037844388 6.290685123015061e-16 -0.49999999999999994 0.8001031451912651 0.3314135740355927 -0.49999999999999983
          0.6123724356957942 0.6123724356957949 -0.4999999999999999 0.6123724356957942 0.6123724356957949 -0.4999999999999999
          0.3314135740355917 0.8001031451912655 -0.4999999999999999 -1.2212453270876722e-15 0.8660254037844387 -0.49999999999999994
          <InformationKey name="L2_NORM_RANGE" location="vtkDataArray" length="2">
            <Value index="0">
              1
            </Value>
            <Value index="1">
              1
            </Value>
          </InformationKey>
        </DataArray>
        <DataArray type="Float64" Name="base_vector_2" NumberOfComponents="3" format="ascii" RangeMin="0.9999999999999997" RangeMax="1.0000000000000002">
          1 -1.1102230246251565e-16 -5.551115123125783e-17 0.9238795325112867 0.3826834323650897 -2.7755575615628914e-17
          0.7071067811865477 0.7071067811865478 -5.551115123125783e-17 0.7071067811865477 0.7071067811865478 -5.551115123125783e-17
          0.3826834323650898 0.9238795325112868 -6.938893903907228e-17 -2.288459616394564e-16 1 -3.8497179955529285e-18
          -2.432133047936721e-16 1 -4.976993662575722e-17 -0.38268343236509 0.9238795325112867 -6.938893903907228e-17
          -0.7071067811865478 0.7071067811865475 -5.551115123125783e-17 -0.7071067811865478 0.7071067811865475 -5.551115123125783e-17
          -0.9238795325112867 0.3826834323650897 -8.326672684688674e-17 -1 -5.551115123125783e-16 -1.3877787807814457e-16
          0.9999999999999999 -1.1102230246251565e-16 1.1102230246251565e-16 0.9999999999999999 -1.1102230246251565e-16 1.1102230246251565e-16
          0.9999999999999999 -1.1102230246251565e-16 1.1102230246251565e-16 0.9999999999999999 -1.1102230246251565e-16 1.1102230246251565e-16
          0.9999999999999999 -1.1102230246251565e-16 1.1102230246251565e-16 0.9999999999999999 -1.1102230246251565e-16 1.1102230246251565e-16
          -1 -5.551115123125783e-16 5.551115123125783e-17 -0.9238795325112866 -0.38268343236509017 -2.7755575615628914e-17
          -0.7071067811865472 -0.7071067811865479 -2.7755575615628914e-17 -0.7071067811865472 -0.7071067811865479 -2.7755575615628914e-17
          -0.3826834323650896 -0.923879532511287 0 6.865378849183692e-16 -1 -1.154915398665878e-17
          7.009052280725849e-16 -1 -4.207050063465136e-17 0.3826834323650908 -0.9238795325112861 0
          0.7071067811865479 -0.7071067811865472 -2.7755575615628914e-17 0.7071067811865479 -0.7071067811865472 -2.7755575615628914e-17
          0.9238795325112867 -0.3826834323650897 0 1 1.4432899320127035e-15 0
          -1 -7.771561172376096e-16 5.551115123125783e-17 -1 -7.771561172376096e-16 5.551115123125783e-17
          -1 -7.771561172376096e-16 5.551115123125783e-17 -1 -7.771561172376096e-16 5.551115123125783e-17
          -1 -7.771561172376096e-16 5.551115123125783e-17 -1 -7.771561172376096e-16 5.551115123125783e-17
          1 -1.1102230246251565e-16 2.7755575615628914e-17 0.9238795325112867 0.3826834323650897 2.7755575615628914e-17
          0.7071067811865477 0.7071067811865477 1.1102230246251565e-16 0.7071067811865477 0.7071067811865477 1.1102230246251565e-16
          0.3826834323650897 0.923879532511287 6.938893903907228e-17 -2.144786184852406e-16 1 5.746937261686306e-17
          -2.0011127533102482e-16 1 -1.1108902723817322e-16 -0.38268343236508995 0.9238795325112868 -1.249000902703301e-16
          -0.7071067811865478 0.7071067811865475 -1.3877787807814457e-16 -0.7071067811865478 0.7071067811865475 -1.3877787807814457e-16
          -0.9238795325112867 0.3826834323650897 -1.1102230246251565e-16 -1 -4.440892098500626e-16 -5.551115123125783e-17
          -3.9252311467094373e-16 0.9999999999999998 7.850462293418875e-17 -3.9252311467094373e-16 0.9999999999999998 7.850462293418875e-17
          -3.9252311467094373e-16 0.9999999999999998 7.850462293418875e-17 -3.9252311467094373e-16 0.9999999999999998 7.850462293418875e-17
          -3.9252311467094373e-16 0.9999999999999998 7.850462293418875e-17 -3.9252311467094373e-16 0.9999999999999998 7.850462293418875e-17
          -1 -4.440892098500626e-16 -2.7755575615628914e-17 -0.9238795325112865 -0.38268343236509017 5.551115123125783e-17
          -0.7071067811865472 -0.7071067811865479 0 -0.7071067811865472 -0.7071067811865479 0
          -0.3826834323650896 -0.923879532511287 4.163336342344337e-17 6.721705417641533e-16 -1 6.516880860796888e-17
          6.578031986099375e-16 -1 -1.187884632292791e-16 0.3826834323650907 -0.9238795325112861 -1.249000902703301e-16
          0.7071067811865479 -0.7071067811865472 -8.326672684688674e-17 0.7071067811865479 -0.7071067811865472 -8.326672684688674e-17
          0.9238795325112867 -0.3826834323650897 -1.1102230246251565e-16 1 1.4432899320127035e-15 -1.3877787807814457e-16
          7.065416064076988e-16 -0.9999999999999998 7.850462293418875e-17 7.065416064076988e-16 -0.9999999999999998 7.850462293418875e-17
          7.065416064076988e-16 -0.9999999999999998 7.850462293418875e-17 7.065416064076988e-16 -0.9999999999999998 7.850462293418875e-17
          7.065416064076988e-16 -0.9999999999999998 7.850462293418875e-17 7.065416064076988e-16 -0.9999999999999998 7.850462293418875e-17
          1 -1.1102230246251565e-16 -1.3877787807814457e-16 0.9238795325112867 0.3826834323650897 -1.3877787807814457e-16
          0.7071067811865477 0.7071067811865478 -1.3877787807814457e-16 0.7071067811865477 0.7071067811865478 -1.3877787807814457e-16
          0.3826834323650898 0.9238795325112868 -1.3877787807814457e-16 -2.0011127533102482e-16 1 -1.1108902723817322e-16
          -2.144786184852406e-16 1 5.746937261686306e-17 -0.38268343236508995 0.9238795325112868 4.163336342344337e-17
          -0.7071067811865478 0.7071067811865475 2.7755575615628914e-17 -0.7071067811865478 0.7071067811865475 2.7755575615628914e-17
          -0.9238795325112867 0.3826834323650897 0 -1 -4.440892098500626e-16 -2.7755575615628914e-17
          0.9999999999999999 -1.1102230246251565e-16 1.1102230246251565e-16 0.9999999999999999 -1.1102230246251565e-16 1.1102230246251565e-16
          0.9999999999999999 -1.1102230246251565e-16 1.1102230246251565e-16 0.9999999999999999 -1.1102230246251565e-16 1.1102230246251565e-16
          0.9999999999999999 -1.1102230246251565e-16 1.1102230246251565e-16 0.9999999999999999 -1.1102230246251565e-16 1.1102230246251565e-16
          -1 -4.440892098500626e-16 -5.551115123125783e-17 -0.9238795325112866 -0.38268343236509017 -1.3877787807814457e-16
          -0.7071067811865472 -0.7071067811865479 -1.1102230246251565e-16 -0.7071067811865472 -0.7071067811865479 -1.1102230246251565e-16
          -0.3826834323650896 -0.923879532511287 -9.71445146547012e-17 6.578031986099375e-16 -1 -1.187884632292791e-16
          6.721705417641533e-16 -1 6.516880860796888e-17 0.3826834323650907 -0.9238795325112861 4.163336342344337e-17
          0.7071067811865479 -0.7071067811865472 2.7755575615628914e-17 0.7071067811865479 -0.7071067811865472 2.7755575615628914e-17
          0.9238795325112866 -0.3826834323650897 5.551115123125783e-17 1 1.4432899320127035e-15 5.551115123125783e-17
          -1 -7.771561172376096e-16 5.551115123125783e-17 -1 -7.771561172376096e-16 5.551115123125783e-17
          -1 -7.771561172376096e-16 5.551115123125783e-17 -1 -7.771561172376096e-16 5.551115123125783e-17
          -1 -7.771561172376096e-16 5.551115123125783e-17 -1 -7.771561172376096e-16 5.551115123125783e-17
          1 -1.1102230246251565e-16 2.7755575615628914e-17 0.9238795325112867 0.3826834323650897 2.7755575615628914e-17
          0.7071067811865477 0.7071067811865477 1.1102230246251565e-16 0.7071067811865477 0.7071067811865477 1.1102230246251565e-16
          0.3826834323650897 0.923879532511287 6.938893903907228e-17 -2.144786184852406e-16 1 5.746937261686306e-17
          -2.0011127533102482e-16 1 -1.1108902723817322e-16 -0.38268343236508995 0.9238795325112868 -1.249000902703301e-16
          -0.7071067811865478 0.7071067811865475 -1.3877787807814457e-16 -0.7071067811865478 0.7071067811865475 -1.3877787807814457e-16
          -0.9238795325112867 0.3826834323650897 -1.1102230246251565e-16 -1 -4.440892098500626e-16 -5.551115123125783e-17
          -1 -4.440892098500626e-16 -2.7755575615628914e-17 -0.9238795325112865 -0.38268343236509017 5.551115123125783e-17
          -0.7071067811865472 -0.7071067811865479 0 -0.7071067811865472 -0.7071067811865479 0
          -0.3826834323650896 -0.923879532511287 4.163336342344337e-17 6.721705417641533e-16 -1 6.516880860796888e-17
          6.578031986099375e-16 -1 -1.187884632292791e-16 0.3826834323650907 -0.9238795325112861 -1.249000902703301e-16
          0.7071067811865479 -0.7071067811865472 -8.326672684688674e-17 0.7071067811865479 -0.7071067811865472 -8.326672684688674e-17
          0.9238795325112867 -0.3826834323650897 -1.1102230246251565e-16 1 1.4432899320127035e-15 -1.3877787807814457e-16
          <InformationKey name="L2_NORM_RANGE" location="vtkDataArray" length="2">
            <Value index="0">
              1
            </Value>
            <Value index="1">
              1
            </Value>
          </InformationKey>
        </DataArray>
        <DataArray type="Float64" Name="base_vector_3" NumberOfComponents="3" format="ascii" RangeMin="0.9999999999999998" RangeMax="1.0000000000000002">
          -1.1102230246251565e-16 -0.5 -0.8660254037844387 0.19134171618254484 -0.46193976625564337 -0.8660254037844385
          0.35355339059327384 -0.35355339059327384 -0.8660254037844389 0.35355339059327384 -0.35355339059327384 -0.8660254037844389
          0.46193976625564337 -0.19134171618254492 -0.8660254037844388 0.49999999999999994 1.1108902723817322e-16 -0.8660254037844387
          -0.49999999999999994 -1.6470868185948336e-16 -0.8660254037844387 -0.46193976625564326 -0.19134171618254497 -0.8660254037844389
          -0.3535533905932736 -0.35355339059327384 -0.8660254037844388 -0.3535533905932736 -0.35355339059327384 -0.8660254037844388
          -0.19134171618254472 -0.46193976625564337 -0.8660254037844385 3.608224830031759e-16 -0.5 -0.8660254037844388
          1.1102230246251565e-16 0.9999999999999999 -1.1102230246251565e-16 1.1102230246251565e-16 0.9999999999999999 -1.1102230246251565e-16
          1.1102230246251565e-16 0.9999999999999999 -1.1102230246251565e-16 1.1102230246251565e-16 0.9999999999999999 -1.1102230246251565e-16
          1.1102230246251565e-16 0.9999999999999999 -1.1102230246251565e-16 1.1102230246251565e-16 0.9999999999999999 -1.1102230246251565e-16
          -2.7755575615628914e-16 0.5 -0.8660254037844388 -0.19134171618254514 0.46193976625564326 -0.8660254037844386
          -0.35355339059327395 0.3535533905932736 -0.8660254037844387 -0.35355339059327395 0.3535533905932736 -0.8660254037844387
          -0.4619397662556435 0.19134171618254484 -0.8660254037844387 -0.49999999999999994 -3.332670817145197e-16 -0.8660254037844387
          0.49999999999999994 3.868867363358298e-16 -0.8660254037844387 0.46193976625564304 0.19134171618254536 -0.8660254037844385
          0.3535533905932735 0.35355339059327395 -0.8660254037844387 0.3535533905932735 0.35355339059327395 -0.8660254037844387
          0.1913417161825448 0.4619397662556433 -0.8660254037844386 -7.216449660063518e-16 0.49999999999999994 -0.8660254037844387
          6.661338147750939e-16 -1 -2.220446049250313e-16 6.661338147750939e-16 -1 -2.220446049250313e-16
          6.661338147750939e-16 -1 -2.220446049250313e-16 6.661338147750939e-16 -1 -2.220446049250313e-16
          6.661338147750939e-16 -1 -2.220446049250313e-16 6.661338147750939e-16 -1 -2.220446049250313e-16
          1.1102230246251565e-16 0.4999999999999999 -0.8660254037844387 -0.19134171618254475 0.46193976625564326 -0.8660254037844386
          -0.3535533905932737 0.35355339059327373 -0.866025403784439 -0.3535533905932737 0.35355339059327373 -0.866025403784439
          -0.46193976625564326 0.19134171618254486 -0.8660254037844387 -0.4999999999999999 -5.746937261686306e-17 -0.8660254037844388
          0.49999999999999994 3.8497179955529285e-18 -0.8660254037844387 0.46193976625564337 0.19134171618254486 -0.8660254037844388
          0.35355339059327384 0.35355339059327373 -0.8660254037844388 0.35355339059327384 0.35355339059327373 -0.8660254037844388
          0.19134171618254492 0.46193976625564326 -0.8660254037844386 -1.6653345369377348e-16 0.49999999999999994 -0.8660254037844387
          -0.9999999999999998 -3.9252311467094373e-16 2.465190328815662e-32 -0.9999999999999998 -3.9252311467094373e-16 2.465190328815662e-32
          -0.9999999999999998 -3.9252311467094373e-16 2.465190328815662e-32 -0.9999999999999998 -3.9252311467094373e-16 2.465190328815662e-32
          -0.9999999999999998 -3.9252311467094373e-16 2.465190328815662e-32 -0.9999999999999998 -3.9252311467094373e-16 2.465190328815662e-32
          2.498001805406602e-16 -0.4999999999999999 -0.8660254037844387 0.19134171618254506 -0.46193976625564315 -0.8660254037844386
          0.35355339059327384 -0.3535533905932735 -0.8660254037844388 0.35355339059327384 -0.3535533905932735 -0.8660254037844388
          0.46193976625564326 -0.1913417161825448 -0.8660254037844388 0.4999999999999999 2.7964742709320947e-16 -0.8660254037844387
          -0.49999999999999994 -2.260277724718994e-16 -0.8660254037844387 -0.4619397662556431 -0.19134171618254525 -0.8660254037844385
          -0.3535533905932736 -0.35355339059327384 -0.8660254037844386 -0.3535533905932736 -0.35355339059327384 -0.8660254037844386
          -0.19134171618254492 -0.46193976625564326 -0.8660254037844386 6.106226635438361e-16 -0.5 -0.8660254037844387
          0.9999999999999998 7.065416064076988e-16 0 0.9999999999999998 7.065416064076988e-16 0
          0.9999999999999998 7.065416064076988e-16 0 0.9999999999999998 7.065416064076988e-16 0
          0.9999999999999998 7.065416064076988e-16 0 0.9999999999999998 7.065416064076988e-16 0
          -1.6653345369377348e-16 -0.5 -0.8660254037844387 0.19134171618254467 -0.46193976625564337 -0.8660254037844385
          0.35355339059327373 -0.35355339059327384 -0.8660254037844389 0.35355339059327373 -0.35355339059327384 -0.8660254037844389
          0.46193976625564337 -0.191341716182545 -0.8660254037844388 0.49999999999999994 3.8497179955529285e-18 -0.8660254037844387
          -0.4999999999999999 -5.746937261686306e-17 -0.8660254037844388 -0.46193976625564326 -0.19134171618254486 -0.8660254037844388
          -0.3535533905932737 -0.35355339059327373 -0.8660254037844388 -0.3535533905932737 -0.35355339059327373 -0.8660254037844388
          -0.19134171618254478 -0.46193976625564326 -0.8660254037844386 2.498001805406602e-16 -0.4999999999999999 -0.8660254037844387
          1.1102230246251565e-16 0.9999999999999999 -1.1102230246251565e-16 1.1102230246251565e-16 0.9999999999999999 -1.1102230246251565e-16
          1.1102230246251565e-16 0.9999999999999999 -1.1102230246251565e-16 1.1102230246251565e-16 0.9999999999999999 -1.1102230246251565e-16
          1.1102230246251565e-16 0.9999999999999999 -1.1102230246251565e-16 1.1102230246251565e-16 0.9999999999999999 -1.1102230246251565e-16
          -1.6653345369377348e-16 0.49999999999999994 -0.8660254037844387 -0.191341716182545 0.46193976625564326 -0.8660254037844386
          -0.35355339059327384 0.3535533905932736 -0.8660254037844388 -0.35355339059327384 0.3535533905932736 -0.8660254037844388
          -0.46193976625564326 0.19134171618254486 -0.8660254037844388 -0.49999999999999994 -2.260277724718994e-16 -0.8660254037844387
          0.4999999999999999 2.7964742709320947e-16 -0.8660254037844387 0.4619397662556429 0.1913417161825453 -0.8660254037844386
          0.3535533905932735 0.35355339059327384 -0.8660254037844387 0.3535533905932735 0.35355339059327384 -0.8660254037844387
          0.1913417161825448 0.4619397662556432 -0.8660254037844386 -6.661338147750939e-16 0.4999999999999999 -0.8660254037844387
          6.661338147750939e-16 -1 -2.220446049250313e-16 6.661338147750939e-16 -1 -2.220446049250313e-16
          6.661338147750939e-16 -1 -2.220446049250313e-16 6.661338147750939e-16 -1 -2.220446049250313e-16
          6.661338147750939e-16 -1 -2.220446049250313e-16 6.661338147750939e-16 -1 -2.220446049250313e-16
          1.1102230246251565e-16 0.4999999999999999 -0.8660254037844387 -0.19134171618254475 0.46193976625564326 -0.8660254037844386
          -0.3535533905932737 0.35355339059327373 -0.866025403784439 -0.3535533905932737 0.35355339059327373 -0.866025403784439
          -0.46193976625564326 0.19134171618254486 -0.8660254037844387 -0.4999999999999999 -5.746937261686306e-17 -0.8660254037844388
          0.49999999999999994 3.8497179955529285e-18 -0.8660254037844387 0.46193976625564337 0.19134171618254486 -0.8660254037844388
          0.35355339059327384 0.35355339059327373 -0.8660254037844388 0.35355339059327384 0.35355339059327373 -0.8660254037844388
          0.19134171618254492 0.46193976625564326 -0.8660254037844386 -1.6653345369377348e-16 0.49999999999999994 -0.8660254037844387
          2.498001805406602e-16 -0.4999999999999999 -0.8660254037844387 0.19134171618254506 -0.46193976625564315 -0.8660254037844386
          0.35355339059327384 -0.3535533905932735 -0.8660254037844388 0.35355339059327384 -0.3535533905932735 -0.8660254037844388
          0.46193976625564326 -0.1913417161825448 -0.8660254037844388 0.4999999999999999 2.7964742709320947e-16 -0.8660254037844387
          -0.49999999999999994 -2.260277724718994e-16 -0.8660254037844387 -0.4619397662556431 -0.19134171618254525 -0.8660254037844385
          -0.3535533905932736 -0.35355339059327384 -0.8660254037844386 -0.3535533905932736 -0.35355339059327384 -0.8660254037844386
          -0.19134171618254492 -0.46193976625564326 -0.8660254037844386 6.106226635438361e-16 -0.5 -0.8660254037844387
          <InformationKey name="L2_NORM_RANGE" location="vtkDataArray" length="2">
            <Value index="0">
              1
            </Value>
            <Value index="1">
              1
            </Value>
          </InformationKey>
        </DataArray>
      </PointData>
      <CellData>
        <DataArray type="Float64" Name="cross_section_radius" format="ascii" RangeMin="0.05" RangeMax="0.05">
          0.05 0.05 0.05 0.05 0.05 0.05
          0.05 0.05 0.05 0.05 0.05 0.05
          0.05 0.05 0.05 0.05 0.05 0.05
          0.05 0.05 0.05 0.05 0.05 0.05
          0.05 0.05 0.05 0.05 0.05 0.05
          0.05 0.05 0.05 0.05 0.05 0.05
          0.05 0.05 0.05 0.05 0.05 0.05
          0.05 0.05
        </DataArray>
      </CellData>
      <Points>
        <DataArray type="Float64" Name="Points" NumberOfComponents="3" format="ascii" RangeMin="0.9999999999999998" RangeMax="9.123963137935801">
          0.9999999999999998 0 0.9068996821171088 0.9238795325112865 0.3826834323650897 0.6801747615878316
          0.7071067811865472 0.7071067811865476 0.4534498410585544 0.7071067811865472 0.7071067811865476 0.4534498410585544
          0.3826834323650895 0.9238795325112866 0.2267249205292772 -3.8285686989269484e-16 0.9999999999999998 0
          -3.8285686989269484e-16 0.9999999999999998 0 -0.38268343236509 0.9238795325112864 0.2267249205292772
          -0.7071067811865477 0.7071067811865471 0.4534498410585544 -0.7071067811865477 0.7071067811865471 0.4534498410585544