<?xml version="1.0"?>
<VTKFile type="UnstructuredGrid" version="0.1" byte_order="LittleEndian" header_type="UInt32" compressor="vtkZLibDataCompressor">
  <UnstructuredGrid>
    <Piece NumberOfPoints="9" NumberOfCells="3">
      <PointData>
        <DataArray type="Float64" Name="node_value" format="ascii" RangeMin="0.5" RangeMax="1">
          1 0.5 1 1 0.5 1
          1 0.5 1
        </DataArray>
        <DataArray type="Float64" Name="base_vector_1" NumberOfComponents="3" format="ascii" RangeMin="1" RangeMax="1">
          -0.5103067102965408 0.8576657410168776 -0.06321817865371243 -0.5103067102965408 0.8576657410168776 -0.06321817865371243
          -0.5103067102965408 0.8576657410168776 -0.06321817865371243 -0.5103067102965408 0.8576657410168776 -0.06321817865371243
          -0.5103067102965408 0.8576657410168776 -0.06321817865371243 -0.5103067102965408 0.8576657410168776 -0.06321817865371243
          -0.5103067102965408 0.8576657410168776 -0.06321817865371243 -0.5103067102965408 0.8576657410168776 -0.06321817865371243
          -0.5103067102965408 0.8576657410168776 -0.06321817865371243
          <InformationKey name="L2_NORM_RANGE" location="vtkDataArray" length="2">
            <Value index="0">
              1
            </Value>
            <Value index="1">
              1
            </Value>
          </InformationKey>
        </DataArray>
        <DataArray type="Float64" Name="base_vector_2" NumberOfComponents="3" format="ascii" RangeMin="1.0000000000000002" RangeMax="1.0000000000000002">
          -0.44154287970536144 -0.19821456431290368 0.8750719238301174 -0.44154287970536144 -0.19821456431290368 0.8750719238301174
          -0.44154287970536144 -0.19821456431290368 0.8750719238301174 -0.44154287970536144 -0.19821456431290368 0.8750719238301174
          -0.44154287970536144 -0.19821456431290368 0.8750719238301174 -0.44154287970536144 -0.19821456431290368 0.8750719238301174
          -0.44154287970536144 -0.19821456431290368 0.8750719238301174 -0.44154287970536144 -0.19821456431290368 0.8750719238301174
          -0.44154287970536144 -0.19821456431290368 0.8750719238301174
          <InformationKey name="L2_NORM_RANGE" location="vtkDataArray" length="2">
            <Value index="0">
              1
            </Value>
            <Value index="1">
              1
            </Value>
          </InformationKey>
        </DataArray>
        <DataArray type="Float64" Name="base_vector_3" NumberOfComponents="3" format="ascii" RangeMin="1" RangeMax="1">
          0.7379884462563213 0.4744686113751005 0.4798464233606047 0.7379884462563213 0.4744686113751005 0.4798464233606047
          0.7379884462563213 0.4744686113751005 0.4798464233606047 0.7379884462563213 0.4744686113751005 0.4798464233606047
          0.7379884462563213 0.4744686113751005 0.4798464233606047 0.7379884462563213 0.4744686113751005 0.4798464233606047
          0.7379884462563213 0.4744686113751005 0.4798464233606047 0.7379884462563213 0.4744686113751005 0.4798464233606047
          0.7379884462563213 0.4744686113751005 0.4798464233606047
          <InformationKey name="L2_NORM_RANGE" location="vtkDataArray" length="2">
            <Value index="0">
              1
            </Value>
            <Value index="1">
              1
            </Value>
          </InformationKey>
        </DataArray>
      </PointData>
      <CellData>
        <DataArray type="Float64" Name="cross_section_radius" format="ascii" RangeMin="-1" RangeMax="-1">
          -1 -1 -1
        </DataArray>
        <DataArray type="Float64" Name="partner_index" format="ascii" RangeMin="0" RangeMax="1">
          1 0 1
        </DataArray>
      </CellData>
      <Points>
        <DataArray type="Float32" Name="Points" NumberOfComponents="3" format="ascii" RangeMin="6.954433290200489" RangeMax="7.5617058188188775">
          4.482364177703857 3.79614520072937 -3.7231485843658447 4.227210521697998 4.224977970123291 -3.7547576427459717
          3.972057342529297 4.653810977935791 -3.7863667011260986 3.972057342529297 4.653810977935791 -3.7863667011260986
          3.7169039249420166 5.082643985748291 -3.8179757595062256 3.4617507457733154 5.511476516723633 -3.8495848178863525
          4.482364177703857 3.79614520072937 -3.7231485843658447 4.227210521697998 4.224977970123291 -3.7547576427459717
          3.972057342529297 4.653810977935791 -3.7863667011260986
          <InformationKey name="L2_NORM_RANGE" location="vtkDataArray" length="2">
            <Value index="0">
              6.9544332902
            </Value>
            <Value index="1">
              7.5617058188
            </Value>
          </InformationKey>
        </DataArray>
      </Points>
      <Cells>
        <DataArray type="Int64" Name="connectivity" format="ascii" RangeMin="0" RangeMax="8">
          0 1 2 3 4 5
          6 7 8
        </DataArray>
        <DataArray type="Int64" Name="offsets" format="ascii" RangeMin="3" RangeMax="9">
          3 6 9
        </DataArray>
        <DataArray type="UInt8" Name="types" format="ascii" RangeMin="4" RangeMax="4">
          4 4 4
        </DataArray>
      </Cells>
    </Piece>
  </UnstructuredGrid>
</VTKFile>
