<?xml version="1.0"?>
<VTKFile type="UnstructuredGrid" version="0.1" byte_order="LittleEndian" header_type="UInt32" compressor="vtkZLibDataCompressor">
  <UnstructuredGrid>
    <Piece NumberOfPoints="160" NumberOfCells="20">
      <PointData>
        <DataArray type="Float64" Name="geometry_surface_set_1" format="ascii" RangeMin="0" RangeMax="1">
          0 0 0 0 1 1
          1 1 0 0 0 0
          1 1 1 1 0 0
          0 0 0 0 0 0
          0 0 0 0 0 0
          0 0 0 0 0 0
          0 0 0 0 0 0
          0 0 0 0 0 0
          0 0 0 0 0 0
          0 0 0 0 0 0
          0 0 0 0 0 0
          0 0 0 0 0 0
          0 0 0 0 0 0
          0 0 0 0 0 0
          0 0 0 0 0 0
          0 0 0 0 0 0
          0 0 0 0 0 0
          0 0 0 0 0 0
          0 0 0 0 0 0
          0 0 0 0 0 0
          0 0 0 0 0 0
          0 0 0 0 0 0
          0 0 0 0 0 0
          0 0 0 0 0 0
          0 0 0 0 0 0
          0 0 0 0 0 0
          0 0 0 0
        </DataArray>
        <DataArray type="Float64" Name="geometry_surface_set_2" format="ascii" RangeMin="0" RangeMax="1">
          0 0 0 0 0 0
          0 0 0 0 0 0
          0 0 0 0 0 0
          0 0 0 0 0 0
          0 0 0 0 0 0
          0 0 0 0 0 0
          0 0 0 0 0 0
          0 0 0 0 0 0
          0 0 0 0 0 0
          0 0 0 0 0 0
          0 0 0 0 0 0
          0 0 0 0 0 0
          0 0 0 0 0 0
          0 0 0 0 0 0
          0 0 0 0 0 0
          0 0 0 0 0 0
          0 0 0 0 0 0
          0 0 0 0 0 0
          0 0 0 0 0 0
          0 0 0 0 0 0
          0 0 0 0 0 0
          0 0 0 0 0 0
          0 0 0 0 0 0
          0 0 0 0 0 0
          1 1 1 1 0 0
          0 0 1 1 1 1
          0 0 0 0
        </DataArray>
      </PointData>
      <CellData>
      </CellData>
      <Points>
        <DataArray type="Float32" Name="Points" NumberOfComponents="3" format="ascii" RangeMin="0.24999999663" RangeMax="5.0062460986">
          0.25 0 -4 0.125 -0.21650634706 -4
          -0.125 -0.21650634706 -4 -0.25 -3.0616171315e-17 -4
          0.25 0 -5 0.125 -0.21650634706 -5
          -0.125 -0.21650634706 -5 -0.25 -3.0616171315e-17 -5
          -0.25 -3.0616171315e-17 -4 -0.125 0.21650634706 -4
          0.125 0.21650634706 -4 0.25 0 -4
          -0.25 -3.0616171315e-17 -5 -0.125 0.21650634706 -5
          0.125 0.21650634706 -5 0.25 0 -5
          0.25 0 -3 0.125 -0.21650634706 -3
          -0.125 -0.21650634706 -3 -0.25 -3.0616171315e-17 -3
          0.25 0 -4 0.125 -0.21650634706 -4
          -0.125 -0.21650634706 -4 -0.25 -3.0616171315e-17 -4
          -0.25 -3.0616171315e-17 -3 -0.125 0.21650634706 -3
          0.125 0.21650634706 -3 0.25 0 -3
          -0.25 -3.0616171315e-17 -4 -0.125 0.21650634706 -4
          0.125 0.21650634706 -4 0.25 0 -4
          0.25 0 -2 0.125 -0.21650634706 -2
          -0.125 -0.21650634706 -2 -0.25 -3.0616171315e-17 -2
          0.25 0 -3 0.125 -0.21650634706 -3
          -0.125 -0.21650634706 -3 -0.25 -3.0616171315e-17 -3
          -0.25 -3.0616171315e-17 -2 -0.125 0.21650634706 -2
          0.125 0.21650634706 -2 0.25 0 -2
          -0.25 -3.0616171315e-17 -3 -0.125 0.21650634706 -3
          0.125 0.21650634706 -3 0.25 0 -3
          0.25 0 -1 0.125 -0.21650634706 -1
          -0.125 -0.21650634706 -1 -0.25 -3.0616171315e-17 -1
          0.25 0 -2 0.125 -0.21650634706 -2
          -0.125 -0.21650634706 -2 -0.25 -3.0616171315e-17 -2
          -0.25 -3.0616171315e-17 -1 -0.125 0.21650634706 -1
          0.125 0.21650634706 -1 0.25 0 -1
          -0.25 -3.0616171315e-17 -2 -0.125 0.21650634706 -2
          0.125 0.21650634706 -2 0.25 0 -2
          0.25 0 0 0.125 -0.21650634706 2.2204460493e-16
          -0.125 -0.21650634706 -2.2204460493e-16 -0.25 -3.0616171315e-17 0
          0.25 0 -1 0.125 -0.21650634706 -1
          -0.125 -0.21650634706 -1 -0.25 -3.0616171315e-17 -1
          -0.25 -3.0616171315e-17 0 -0.125 0.21650634706 0
          0.125 0.21650634706 0 0.25 0 0
          -0.25 -3.0616171315e-17 -1 -0.125 0.21650634706 -1
          0.125 0.21650634706 -1 0.25 0 -1
          0.25 0 1 0.125 -0.21650634706 1
          -0.125 -0.21650634706 1 -0.25 -3.0616171315e-17 1
          0.25 0 0 0.125 -0.21650634706 2.2204460493e-16
          -0.125 -0.21650634706 -2.2204460493e-16 -0.25 -3.0616171315e-17 0
          -0.25 -3.0616171315e-17 1 -0.125 0.21650634706 1
          0.125 0.21650634706 1 0.25 0 1
          -0.25 -3.0616171315e-17 0 -0.125 0.21650634706 0
          0.125 0.21650634706 0 0.25 0 0
          0.25 0 2 0.125 -0.21650634706 2
          -0.125 -0.21650634706 2 -0.25 -3.0616171315e-17 2
          0.25 0 1 0.125 -0.21650634706 1
          -0.125 -0.21650634706 1 -0.25 -3.0616171315e-17 1
          -0.25 -3.0616171315e-17 2 -0.125 0.21650634706 2
          0.125 0.21650634706 2 0.25 0 2
          -0.25 -3.0616171315e-17 1 -0.125 0.21650634706 1
          0.125 0.21650634706 1 0.25 0 1
          0.25 0 3 0.125 -0.21650634706 3
          -0.125 -0.21650634706 3 -0.25 -3.0616171315e-17 3
          0.25 0 2 0.125 -0.21650634706 2
          -0.125 -0.21650634706 2 -0.25 -3.0616171315e-17 2
          -0.25 -3.0616171315e-17 3 -0.125 0.21650634706 3
          0.125 0.21650634706 3 0.25 0 3
          -0.25 -3.0616171315e-17 2 -0.125 0.21650634706 2
          0.125 0.21650634706 2 0.25 0 2
          0.25 0 4 0.125 -0.21650634706 4
          -0.125 -0.21650634706 4 -0.25 -3.0616171315e-17 4
          0.25 0 3 0.125 -0.21650634706 3
          -0.125 -0.21650634706 3 -0.25 -3.0616171315e-17 3
          -0.25 -3.0616171315e-17 4 -0.125 0.21650634706 4
          0.125 0.21650634706 4 0.25 0 4
          -0.25 -3.0616171315e-17 3 -0.125 0.21650634706 3
          0.125 0.21650634706 3 0.25 0 3
          0.25 0 5 0.125 -0.21650634706 5
          -0.125 -0.21650634706 5 -0.25 3.0616171315e-17 5
          0.25 0 4 0.125 -0.21650634706 4
          -0.125 -0.21650634706 4 -0.25 -3.0616171315e-17 4
          -0.25 3.0616171315e-17 5 -0.125 0.21650634706 5
          0.125 0.21650634706 5 0.25 0 5
          -0.25 -3.0616171315e-17 4 -0.125 0.21650634706 4
          0.125 0.21650634706 4 0.25 0 4
        </DataArray>
      </Points>
      <Cells>
        <DataArray type="Int64" Name="connectivity" format="ascii" RangeMin="0" RangeMax="159">
          0 1 2 3 4 5
          6 7 8 9 10 11
          12 13 14 15 16 17
          18 19 20 21 22 23
          24 25 26 27 28 29
          30 31 32 33 34 35
          36 37 38 39 40 41
          42 43 44 45 46 47
          48 49 50 51 52 53
          54 55 56 57 58 59
          60 61 62 63 64 65
          66 67 68 69 70 71
          72 73 74 75 76 77
          78 79 80 81 82 83
          84 85 86 87 88 89
          90 91 92 93 94 95
          96 97 98 99 100 101
          102 103 104 105 106 107
          108 109 110 111 112 113
          114 115 116 117 118 119
          120 121 122 123 124 125
          126 127 128 129 130 131
          132 133 134 135 136 137
          138 139 140 141 142 143
          144 145 146 147 148 149
          150 151 152 153 154 155
          156 157 158 159
        </DataArray>
        <DataArray type="Int64" Name="offsets" format="ascii" RangeMin="8" RangeMax="160">
          8 16 24 32 40 48
          56 64 72 80 88 96
          104 112 120 128 136 144
          152 160
        </DataArray>
        <DataArray type="UInt8" Name="types" format="ascii" RangeMin="12" RangeMax="12">
          12 12 12 12 12 12
          12 12 12 12 12 12
          12 12 12 12 12 12
          12 12
        </DataArray>
      </Cells>
    </Piece>
  </UnstructuredGrid>
</VTKFile>

