<?xml version="1.0"?>
<VTKFile type="UnstructuredGrid" version="0.1" byte_order="LittleEndian" header_type="UInt32" compressor="vtkZLibDataCompressor">
  <UnstructuredGrid>
    <Piece NumberOfPoints="330" NumberOfCells="110">
      <PointData>
        <DataArray type="Float64" Name="base_vector_3" NumberOfComponents="3" format="ascii" RangeMin="1" RangeMax="1">
          0 -0.5 -0.86602540378 0.07821723252 -0.4938441703 -0.86602540378
          0.15450849719 -0.47552825815 -0.86602540378 0.15450849719 -0.47552825815 -0.86602540378
          0.22699524987 -0.44550326209 -0.86602540378 0.29389262615 -0.40450849719 -0.86602540378
          -0.29389262615 0.40450849719 -0.86602540378 -0.35355339059 0.35355339059 -0.86602540378
          -0.40450849719 0.29389262615 -0.86602540378 -0.40450849719 0.29389262615 -0.86602540378
          -0.44550326209 0.22699524987 -0.86602540378 -0.47552825815 0.15450849719 -0.86602540378
          1.1102230246e-16 1 -1.1102230246e-16 1.1102230246e-16 1 -1.1102230246e-16
          1.1102230246e-16 1 -1.1102230246e-16 1.1102230246e-16 1 -1.1102230246e-16
          1.1102230246e-16 1 -1.1102230246e-16 1.1102230246e-16 1 -1.1102230246e-16
          0.47552825815 -0.15450849719 -0.86602540378 0.4938441703 -0.07821723252 -0.86602540378
          0.5 -2.2217805448e-16 -0.86602540378 0.5 -2.2217805448e-16 -0.86602540378
          0.4938441703 0.07821723252 -0.86602540378 0.47552825815 0.15450849719 -0.86602540378
          -0.47552825815 -0.15450849719 -0.86602540378 -0.44550326209 -0.22699524987 -0.86602540378
          -0.40450849719 -0.29389262615 -0.86602540378 -0.40450849719 -0.29389262615 -0.86602540378
          -0.35355339059 -0.35355339059 -0.86602540378 -0.29389262615 -0.40450849719 -0.86602540378
          -0.9510565163 0.30901699437 3.1225022568e-17 -0.9510565163 0.30901699437 3.1225022568e-17
          -0.9510565163 0.30901699437 3.1225022568e-17 -0.9510565163 0.30901699437 3.1225022568e-17
          -0.9510565163 0.30901699437 -1.0408340856e-16 -0.9510565163 0.30901699437 -1.0408340856e-16
          0.29389262615 0.40450849719 -0.86602540378 0.22699524987 0.44550326209 -0.86602540378
          0.15450849719 0.47552825815 -0.86602540378 0.15450849719 0.47552825815 -0.86602540378
          0.07821723252 0.4938441703 -0.86602540378 1.1934897515e-15 0.5 -0.86602540378
          -1.4155343564e-15 -0.5 -0.86602540378 0.07821723252 -0.4938441703 -0.86602540378
          0.15450849719 -0.47552825815 -0.86602540378 0.15450849719 -0.47552825815 -0.86602540378
          0.22699524987 -0.44550326209 -0.86602540378 0.29389262615 -0.40450849719 -0.86602540378
          -0.58778525229 -0.80901699437 -1.3877787808e-16 -0.58778525229 -0.80901699437 -1.3877787808e-16
          -0.58778525229 -0.80901699437 -1.3877787808e-16 -0.58778525229 -0.80901699437 -1.3877787808e-16
          -0.58778525229 -0.80901699437 -1.3877787808e-16 -0.58778525229 -0.80901699437 0
          -0.29389262615 0.40450849719 -0.86602540378 -0.35355339059 0.35355339059 -0.86602540378
          -0.40450849719 0.29389262615 -0.86602540378 -0.40450849719 0.29389262615 -0.86602540378
          -0.44550326209 0.22699524987 -0.86602540378 -0.47552825815 0.15450849719 -0.86602540378
          0.47552825815 -0.15450849719 -0.86602540378 0.4938441703 -0.07821723252 -0.86602540378
          0.5 -2.9878545814e-15 -0.86602540378 0.5 -2.9878545814e-15 -0.86602540378
          0.4938441703 0.07821723252 -0.86602540378 0.47552825815 0.15450849719 -0.86602540378
          0.58778525229 -0.80901699437 -1.1102230246e-16 0.58778525229 -0.80901699437 -1.1102230246e-16
          0.58778525229 -0.80901699437 -1.1102230246e-16 0.58778525229 -0.80901699437 -1.1102230246e-16
          0.58778525229 -0.80901699437 -1.1102230246e-16 0.58778525229 -0.80901699437 -1.1102230246e-16
          -0.47552825815 -0.15450849719 -0.86602540378 -0.44550326209 -0.22699524987 -0.86602540378
          -0.40450849719 -0.29389262615 -0.86602540378 -0.40450849719 -0.29389262615 -0.86602540378
          -0.35355339059 -0.35355339059 -0.86602540378 -0.29389262615 -0.40450849719 -0.86602540378
          0.29389262615 0.40450849719 -0.86602540378 0.22699524987 0.44550326209 -0.86602540378
          0.15450849719 0.47552825815 -0.86602540378 0.15450849719 0.47552825815 -0.86602540378
          0.07821723252 0.4938441703 -0.86602540378 4.3021142204e-15 0.5 -0.86602540378
          0.9510565163 0.30901699437 -2.2204460493e-16 0.9510565163 0.30901699437 -2.2204460493e-16
          0.9510565163 0.30901699437 -2.2204460493e-16 0.9510565163 0.30901699437 -2.2204460493e-16
          0.9510565163 0.30901699437 -2.2204460493e-16 0.9510565163 0.30901699437 -2.2204460493e-16
          2.2204460493e-16 0.5 -0.86602540378 -0.07821723252 0.4938441703 -0.86602540378
          -0.15450849719 0.47552825815 -0.86602540378 -0.15450849719 0.47552825815 -0.86602540378
          -0.22699524987 0.44550326209 -0.86602540378 -0.29389262615 0.40450849719 -0.86602540378
          0.29389262615 -0.40450849719 -0.86602540378 0.35355339059 -0.35355339059 -0.86602540378
          0.40450849719 -0.29389262615 -0.86602540378 0.40450849719 -0.29389262615 -0.86602540378
          0.44550326209 -0.22699524987 -0.86602540378 0.47552825815 -0.15450849719 -0.86602540378
          -0.58778525229 0.80901699437 -2.4980018054e-16 -0.58778525229 0.80901699437 -2.4980018054e-16
          -0.58778525229 0.80901699437 -2.4980018054e-16 -0.58778525229 0.80901699437 -2.4980018054e-16
          -0.58778525229 0.80901699437 -2.7755575616e-17 -0.58778525229 0.80901699437 -2.7755575616e-17
          -0.47552825815 0.15450849719 -0.86602540378 -0.4938441703 0.07821723252 -0.86602540378
          -0.5 2.9683295941e-16 -0.86602540378 -0.5 2.9683295941e-16 -0.86602540378
          -0.4938441703 -0.07821723252 -0.86602540378 -0.47552825815 -0.15450849719 -0.86602540378
          0.47552825815 0.15450849719 -0.86602540378 0.44550326209 0.22699524987 -0.86602540378
          0.40450849719 0.29389262615 -0.86602540378 0.40450849719 0.29389262615 -0.86602540378
          0.35355339059 0.35355339059 -0.86602540378 0.29389262615 0.40450849719 -0.86602540378
          -0.9510565163 -0.30901699437 -1.7694179455e-16 -0.9510565163 -0.30901699437 -1.7694179455e-16
          -0.9510565163 -0.30901699437 -1.7694179455e-16 -0.9510565163 -0.30901699437 -1.7694179455e-16
          -0.9510565163 -0.30901699437 -1.7694179455e-16 -0.9510565163 -0.30901699437 -4.1633363423e-17
          -0.29389262615 -0.40450849719 -0.86602540378 -0.22699524987 -0.44550326209 -0.86602540378
          -0.15450849719 -0.47552825815 -0.86602540378 -0.15450849719 -0.47552825815 -0.86602540378
          -0.07821723252 -0.4938441703 -0.86602540378 -9.4368957093e-16 -0.5 -0.86602540378
          6.9388939039e-16 0.5 -0.86602540378 -0.07821723252 0.4938441703 -0.86602540378
          -0.15450849719 0.47552825815 -0.86602540378 -0.15450849719 0.47552825815 -0.86602540378
          -0.22699524987 0.44550326209 -0.86602540378 -0.29389262615 0.40450849719 -0.86602540378
          -1.5543122345e-15 -1 -1.1102230246e-16 -1.5543122345e-15 -1 -1.1102230246e-16
          -1.1102230246e-15 -1 -1.1102230246e-16 -1.1102230246e-15 -1 -1.1102230246e-16
          -1.1102230246e-15 -1 -1.1102230246e-16 -1.1102230246e-15 -1 -1.1102230246e-16
          0.29389262615 -0.40450849719 -0.86602540378 0.35355339059 -0.35355339059 -0.86602540378
          0.40450849719 -0.29389262615 -0.86602540378 0.40450849719 -0.29389262615 -0.86602540378
          0.44550326209 -0.22699524987 -0.86602540378 0.47552825815 -0.15450849719 -0.86602540378
          -0.47552825815 0.15450849719 -0.86602540378 -0.4938441703 0.07821723252 -0.86602540378
          -0.5 1.8023094041e-15 -0.86602540378 -0.5 1.8023094041e-15 -0.86602540378
          -0.4938441703 -0.07821723252 -0.86602540378 -0.47552825815 -0.15450849719 -0.86602540378
          0.9510565163 -0.30901699437 -3.3306690739e-16 0.9510565163 -0.30901699437 -3.3306690739e-16
          0.9510565163 -0.30901699437 -3.3306690739e-16 0.9510565163 -0.30901699437 -3.3306690739e-16
          0.9510565163 -0.30901699437 -1.1102230246e-16 0.9510565163 -0.30901699437 -1.1102230246e-16
          0.47552825815 0.15450849719 -0.86602540378 0.44550326209 0.22699524987 -0.86602540378
          0.40450849719 0.29389262615 -0.86602540378 0.40450849719 0.29389262615 -0.86602540378
          0.35355339059 0.35355339059 -0.86602540378 0.29389262615 0.40450849719 -0.86602540378
          -0.29389262615 -0.40450849719 -0.86602540378 -0.22699524987 -0.44550326209 -0.86602540378
          -0.15450849719 -0.47552825815 -0.86602540378 -0.15450849719 -0.47552825815 -0.86602540378
          -0.07821723252 -0.4938441703 -0.86602540378 -3.6914915569e-15 -0.5 -0.86602540378
          0.58778525229 0.80901699437 0 0.58778525229 0.80901699437 0
          0.58778525229 0.80901699437 0 0.58778525229 0.80901699437 0
          0.58778525229 0.80901699437 0 0.58778525229 0.80901699437 0
          8.3266726847e-17 -0.5 -0.86602540378 0.07821723252 -0.4938441703 -0.86602540378
          0.15450849719 -0.47552825815 -0.86602540378 0.15450849719 -0.47552825815 -0.86602540378
          0.22699524987 -0.44550326209 -0.86602540378 0.29389262615 -0.40450849719 -0.86602540378
          -0.29389262615 0.40450849719 -0.86602540378 -0.35355339059 0.35355339059 -0.86602540378
          -0.40450849719 0.29389262615 -0.86602540378 -0.40450849719 0.29389262615 -0.86602540378
          -0.44550326209 0.22699524987 -0.86602540378 -0.47552825815 0.15450849719 -0.86602540378
          1.1102230246e-16 1 -1.1102230246e-16 1.1102230246e-16 1 -1.1102230246e-16
          1.1102230246e-16 1 -1.1102230246e-16 1.1102230246e-16 1 -1.1102230246e-16
          1.1102230246e-16 1 -1.1102230246e-16 1.1102230246e-16 1 -1.1102230246e-16
          0.47552825815 -0.15450849719 -0.86602540378 0.4938441703 -0.07821723252 -0.86602540378
          0.5 2.757977091e-16 -0.86602540378 0.5 2.757977091e-16 -0.86602540378
          0.4938441703 0.07821723252 -0.86602540378 0.47552825815 0.15450849719 -0.86602540378
          -0.47552825815 -0.15450849719 -0.86602540378 -0.44550326209 -0.22699524987 -0.86602540378
          -0.40450849719 -0.29389262615 -0.86602540378 -0.40450849719 -0.29389262615 -0.86602540378
          -0.35355339059 -0.35355339059 -0.86602540378 -0.29389262615 -0.40450849719 -0.86602540378
          -0.9510565163 0.30901699437 -1.5265566589e-16 -0.9510565163 0.30901699437 -1.5265566589e-16
          -0.9510565163 0.30901699437 -1.5265566589e-16 -0.9510565163 0.30901699437 -1.5265566589e-16
          -0.9510565163 0.30901699437 -9.0205620751e-17 -0.9510565163 0.30901699437 -9.0205620751e-17
          0.29389262615 0.40450849719 -0.86602540378 0.22699524987 0.44550326209 -0.86602540378
          0.15450849719 0.47552825815 -0.86602540378 0.15450849719 0.47552825815 -0.86602540378
          0.07821723252 0.4938441703 -0.86602540378 3.60822483e-16 0.5 -0.86602540378
          -6.9388939039e-16 -0.5 -0.86602540378 0.07821723252 -0.4938441703 -0.86602540378
          0.15450849719 -0.47552825815 -0.86602540378 0.15450849719 -0.47552825815 -0.86602540378
          0.22699524987 -0.44550326209 -0.86602540378 0.29389262615 -0.40450849719 -0.86602540378
          -0.58778525229 -0.80901699437 -1.9428902931e-16 -0.58778525229 -0.80901699437 -1.9428902931e-16
          -0.58778525229 -0.80901699437 -8.3266726847e-17 -0.58778525229 -0.80901699437 -8.3266726847e-17
          -0.58778525229 -0.80901699437 -8.3266726847e-17 -0.58778525229 -0.80901699437 -8.3266726847e-17
          -0.29389262615 0.40450849719 -0.86602540378 -0.35355339059 0.35355339059 -0.86602540378
          -0.40450849719 0.29389262615 -0.86602540378 -0.40450849719 0.29389262615 -0.86602540378
          -0.44550326209 0.22699524987 -0.86602540378 -0.47552825815 0.15450849719 -0.86602540378
          0.47552825815 -0.15450849719 -0.86602540378 0.4938441703 -0.07821723252 -0.86602540378
          0.5 -1.2142798636e-15 -0.86602540378 0.5 -1.2142798636e-15 -0.86602540378
          0.4938441703 0.07821723252 -0.86602540378 0.47552825815 0.15450849719 -0.86602540378
          0.58778525229 -0.80901699437 0 0.58778525229 -0.80901699437 0
          0.58778525229 -0.80901699437 0 0.58778525229 -0.80901699437 0
          0.58778525229 -0.80901699437 0 0.58778525229 -0.80901699437 0
          -0.47552825815 -0.15450849719 -0.86602540378 -0.44550326209 -0.22699524987 -0.86602540378
          -0.40450849719 -0.29389262615 -0.86602540378 -0.40450849719 -0.29389262615 -0.86602540378
          -0.35355339059 -0.35355339059 -0.86602540378 -0.29389262615 -0.40450849719 -0.86602540378
          0.29389262615 0.40450849719 -0.86602540378 0.22699524987 0.44550326209 -0.86602540378
          0.15450849719 0.47552825815 -0.86602540378 0.15450849719 0.47552825815 -0.86602540378
          0.07821723252 0.4938441703 -0.86602540378 2.9976021665e-15 0.5 -0.86602540378
          0.9510565163 0.30901699437 0 0.9510565163 0.30901699437 0
          0.9510565163 0.30901699437 0 0.9510565163 0.30901699437 0
          0.9510565163 0.30901699437 0 0.9510565163 0.30901699437 0
          2.2204460493e-16 0.5 -0.86602540378 -0.07821723252 0.4938441703 -0.86602540378
          -0.15450849719 0.47552825815 -0.86602540378 -0.15450849719 0.47552825815 -0.86602540378
          -0.22699524987 0.44550326209 -0.86602540378 -0.29389262615 0.40450849719 -0.86602540378
          0.29389262615 -0.40450849719 -0.86602540378 0.35355339059 -0.35355339059 -0.86602540378
          0.40450849719 -0.29389262615 -0.86602540378 0.40450849719 -0.29389262615 -0.86602540378
          0.44550326209 -0.22699524987 -0.86602540378 0.47552825815 -0.15450849719 -0.86602540378
          -0.47552825815 0.15450849719 -0.86602540378 -0.4938441703 0.07821723252 -0.86602540378
          -0.5 -7.6994359911e-18 -0.86602540378 -0.5 -7.6994359911e-18 -0.86602540378
          -0.4938441703 -0.07821723252 -0.86602540378 -0.47552825815 -0.15450849719 -0.86602540378
          0.47552825815 0.15450849719 -0.86602540378 0.44550326209 0.22699524987 -0.86602540378
          0.40450849719 0.29389262615 -0.86602540378 0.40450849719 0.29389262615 -0.86602540378
          0.35355339059 0.35355339059 -0.86602540378 0.29389262615 0.40450849719 -0.86602540378
          -0.29389262615 -0.40450849719 -0.86602540378 -0.22699524987 -0.44550326209 -0.86602540378
          -0.15450849719 -0.47552825815 -0.86602540378 -0.15450849719 -0.47552825815 -0.86602540378
          -0.07821723252 -0.4938441703 -0.86602540378 -5.5511151231e-17 -0.5 -0.86602540378
          -2.2204460493e-16 0.5 -0.86602540378 -0.07821723252 0.4938441703 -0.86602540378
          -0.15450849719 0.47552825815 -0.86602540378 -0.15450849719 0.47552825815 -0.86602540378
          -0.22699524987 0.44550326209 -0.86602540378 -0.29389262615 0.40450849719 -0.86602540378
          0.29389262615 -0.40450849719 -0.86602540378 0.35355339059 -0.35355339059 -0.86602540378
          0.40450849719 -0.29389262615 -0.86602540378 0.40450849719 -0.29389262615 -0.86602540378
          0.44550326209 -0.22699524987 -0.86602540378 0.47552825815 -0.15450849719 -0.86602540378
          -0.47552825815 0.15450849719 -0.86602540378 -0.4938441703 0.07821723252 -0.86602540378
          -0.5 4.4820582695e-16 -0.86602540378 -0.5 4.4820582695e-16 -0.86602540378
          -0.4938441703 -0.07821723252 -0.86602540378 -0.47552825815 -0.15450849719 -0.86602540378
          0.47552825815 0.15450849719 -0.86602540378 0.44550326209 0.22699524987 -0.86602540378
          0.40450849719 0.29389262615 -0.86602540378 0.40450849719 0.29389262615 -0.86602540378
          0.35355339059 0.35355339059 -0.86602540378 0.29389262615 0.40450849719 -0.86602540378
          -0.29389262615 -0.40450849719 -0.86602540378 -0.22699524987 -0.44550326209 -0.86602540378
          -0.15450849719 -0.47552825815 -0.86602540378 -0.15450849719 -0.47552825815 -0.86602540378
          -0.07821723252 -0.4938441703 -0.86602540378 -2.2204460493e-15 -0.5 -0.86602540378
        </DataArray>
        <DataArray type="Float64" Name="base_vector_1" NumberOfComponents="3" format="ascii" RangeMin="1" RangeMax="1">
          0 0.86602540378 -0.5 -0.13547622075 0.85536319398 -0.5
          -0.26761656733 0.82363910355 -0.5 -0.26761656733 0.82363910355 -0.5
          -0.39316730585 0.77163428488 -0.5 -0.50903696046 0.70062926922 -0.5
          -0.50903696046 0.70062926922 0.5 -0.6123724357 0.6123724357 0.5
          -0.70062926922 0.50903696046 0.5 -0.70062926922 0.50903696046 0.5
          -0.77163428488 0.39316730585 0.5 -0.82363910355 0.26761656733 0.5
          -1.1102230246e-16 1.1102230246e-16 1 -1.1102230246e-16 1.1102230246e-16 1
          -1.1102230246e-16 1.1102230246e-16 1 -1.1102230246e-16 1.1102230246e-16 1
          -1.1102230246e-16 1.1102230246e-16 1 -1.1102230246e-16 1.1102230246e-16 1
          -0.82363910355 0.26761656733 -0.5 -0.85536319398 0.13547622075 -0.5
          -0.86602540378 4.0022255066e-16 -0.5 -0.86602540378 4.0022255066e-16 -0.5
          -0.85536319398 -0.13547622075 -0.5 -0.82363910355 -0.26761656733 -0.5
          -0.82363910355 -0.26761656733 0.5 -0.77163428488 -0.39316730585 0.5
          -0.70062926922 -0.50903696046 0.5 -0.70062926922 -0.50903696046 0.5
          -0.6123724357 -0.6123724357 0.5 -0.50903696046 -0.70062926922 0.5
          6.9388939039e-18 -8.3266726847e-17 1 6.9388939039e-18 -8.3266726847e-17 1
          6.9388939039e-18 -8.3266726847e-17 1 6.9388939039e-18 -8.3266726847e-17 1
          -1.2836953722e-16 -5.5511151231e-17 1 -1.2836953722e-16 -5.5511151231e-17 1
          -0.50903696046 -0.70062926922 -0.5 -0.39316730585 -0.77163428488 -0.5
          -0.26761656733 -0.82363910355 -0.5 -0.26761656733 -0.82363910355 -0.5
          -0.13547622075 -0.85536319398 -0.5 -1.9984014443e-15 -0.86602540378 -0.5
          -1.8873791419e-15 -0.86602540378 0.5 0.13547622075 -0.85536319398 0.5
          0.26761656733 -0.82363910355 0.5 0.26761656733 -0.82363910355 0.5
          0.39316730585 -0.77163428488 0.5 0.50903696046 -0.70062926922 0.5
          0 -2.2204460493e-16 1 0 -2.2204460493e-16 1
          0 -2.2204460493e-16 1 0 -2.2204460493e-16 1
          0 -2.2204460493e-16 1 1.3877787808e-16 -1.1102230246e-16 1
          0.50903696046 -0.70062926922 -0.5 0.6123724357 -0.6123724357 -0.5
          0.70062926922 -0.50903696046 -0.5 0.70062926922 -0.50903696046 -0.5
          0.77163428488 -0.39316730585 -0.5 0.82363910355 -0.26761656733 -0.5
          0.82363910355 -0.26761656733 0.5 0.85536319398 -0.13547622075 0.5
          0.86602540378 -4.716466549e-15 0.5 0.86602540378 -4.716466549e-15 0.5
          0.85536319398 0.13547622075 0.5 0.82363910355 0.26761656733 0.5
          1.1102230246e-16 -1.1102230246e-16 1 1.1102230246e-16 -1.1102230246e-16 1
          1.1102230246e-16 -1.1102230246e-16 1 1.1102230246e-16 -1.1102230246e-16 1
          1.1102230246e-16 -1.1102230246e-16 1 1.1102230246e-16 -1.1102230246e-16 1
          0.82363910355 0.26761656733 -0.5 0.77163428488 0.39316730585 -0.5
          0.70062926922 0.50903696046 -0.5 0.70062926922 0.50903696046 -0.5
          0.6123724357 0.6123724357 -0.5 0.50903696046 0.70062926922 -0.5
          0.50903696046 0.70062926922 0.5 0.39316730585 0.77163428488 0.5
          0.26761656733 0.82363910355 0.5 0.26761656733 0.82363910355 0.5
          0.13547622075 0.85536319398 0.5 6.8833827527e-15 0.86602540378 0.5
          1.1102230246e-16 1.6653345369e-16 1 1.1102230246e-16 1.6653345369e-16 1
          1.1102230246e-16 1.6653345369e-16 1 1.1102230246e-16 1.6653345369e-16 1
          1.1102230246e-16 1.6653345369e-16 1 1.1102230246e-16 1.6653345369e-16 1
          0 0.86602540378 0.5 -0.13547622075 0.85536319398 0.5
          -0.26761656733 0.82363910355 0.5 -0.26761656733 0.82363910355 0.5
          -0.39316730585 0.77163428488 0.5 -0.50903696046 0.70062926922 0.5
          -0.50903696046 0.70062926922 -0.5 -0.6123724357 0.6123724357 -0.5
          -0.70062926922 0.50903696046 -0.5 -0.70062926922 0.50903696046 -0.5
          -0.77163428488 0.39316730585 -0.5 -0.82363910355 0.26761656733 -0.5
          -3.0531133177e-16 1.1102230246e-16 1 -3.0531133177e-16 1.1102230246e-16 1
          -3.0531133177e-16 1.1102230246e-16 1 -3.0531133177e-16 1.1102230246e-16 1
          -1.1102230246e-16 0 1 -1.1102230246e-16 0 1
          -0.82363910355 0.26761656733 0.5 -0.85536319398 0.13547622075 0.5
          -0.86602540378 3.5402593472e-17 0.5 -0.86602540378 3.5402593472e-17 0.5
          -0.85536319398 -0.13547622075 0.5 -0.82363910355 -0.26761656733 0.5
          -0.82363910355 -0.26761656733 -0.5 -0.77163428488 -0.39316730585 -0.5
          -0.70062926922 -0.50903696046 -0.5 -0.70062926922 -0.50903696046 -0.5
          -0.6123724357 -0.6123724357 -0.5 -0.50903696046 -0.70062926922 -0.5
          -1.2836953722e-16 -1.6653345369e-16 1 -1.2836953722e-16 -1.6653345369e-16 1
          -1.2836953722e-16 -1.6653345369e-16 1 -1.2836953722e-16 -1.6653345369e-16 1
          -1.2836953722e-16 -1.6653345369e-16 1 6.9388939039e-18 -1.6653345369e-16 1
          -0.50903696046 -0.70062926922 0.5 -0.39316730585 -0.77163428488 0.5
          -0.26761656733 -0.82363910355 0.5 -0.26761656733 -0.82363910355 0.5
          -0.13547622075 -0.85536319398 0.5 -1.1102230246e-15 -0.86602540378 0.5
          -1.1102230246e-15 -0.86602540378 -0.5 0.13547622075 -0.85536319398 -0.5
          0.26761656733 -0.82363910355 -0.5 0.26761656733 -0.82363910355 -0.5
          0.39316730585 -0.77163428488 -0.5 0.50903696046 -0.70062926922 -0.5
          1.1102230246e-16 -1.1102230246e-16 1 1.1102230246e-16 -1.1102230246e-16 1
          1.1102230246e-16 -1.1102230246e-16 1 1.1102230246e-16 -1.1102230246e-16 1
          1.1102230246e-16 -1.1102230246e-16 1 1.1102230246e-16 -1.1102230246e-16 1
          0.50903696046 -0.70062926922 0.5 0.6123724357 -0.6123724357 0.5
          0.70062926922 -0.50903696046 0.5 0.70062926922 -0.50903696046 0.5
          0.77163428488 -0.39316730585 0.5 0.82363910355 -0.26761656733 0.5
          0.82363910355 -0.26761656733 -0.5 0.85536319398 -0.13547622075 -0.5
          0.86602540378 -3.0801737529e-15 -0.5 0.86602540378 -3.0801737529e-15 -0.5
          0.85536319398 0.13547622075 -0.5 0.82363910355 0.26761656733 -0.5
          2.2204460493e-16 2.7755575616e-17 1 2.2204460493e-16 2.7755575616e-17 1
          2.2204460493e-16 2.7755575616e-17 1 2.2204460493e-16 2.7755575616e-17 1
          1.1102230246e-16 5.5511151231e-17 1 1.1102230246e-16 5.5511151231e-17 1
          0.82363910355 0.26761656733 0.5 0.77163428488 0.39316730585 0.5
          0.70062926922 0.50903696046 0.5 0.70062926922 0.50903696046 0.5
          0.6123724357 0.6123724357 0.5 0.50903696046 0.70062926922 0.5
          0.50903696046 0.70062926922 -0.5 0.39316730585 0.77163428488 -0.5
          0.26761656733 0.82363910355 -0.5 0.26761656733 0.82363910355 -0.5
          0.13547622075 0.85536319398 -0.5 6.3282712404e-15 0.86602540378 -0.5
          0 1.6653345369e-16 1 0 1.6653345369e-16 1
          0 1.6653345369e-16 1 0 1.6653345369e-16 1
          0 1.6653345369e-16 1 0 1.6653345369e-16 1
          0 0.86602540378 -0.5 -0.13547622075 0.85536319398 -0.5
          -0.26761656733 0.82363910355 -0.5 -0.26761656733 0.82363910355 -0.5
          -0.39316730585 0.77163428488 -0.5 -0.50903696046 0.70062926922 -0.5
          -0.50903696046 0.70062926922 0.5 -0.6123724357 0.6123724357 0.5
          -0.70062926922 0.50903696046 0.5 -0.70062926922 0.50903696046 0.5
          -0.77163428488 0.39316730585 0.5 -0.82363910355 0.26761656733 0.5
          -1.1102230246e-16 1.1102230246e-16 1 -1.1102230246e-16 1.1102230246e-16 1
          -1.1102230246e-16 1.1102230246e-16 1 -1.1102230246e-16 1.1102230246e-16 1
          -1.1102230246e-16 1.1102230246e-16 1 -1.1102230246e-16 1.1102230246e-16 1
          -0.82363910355 0.26761656733 -0.5 -0.85536319398 0.13547622075 -0.5
          -0.86602540378 -3.8585520751e-16 -0.5 -0.86602540378 -3.8585520751e-16 -0.5
          -0.85536319398 -0.13547622075 -0.5 -0.82363910355 -0.26761656733 -0.5
          -0.82363910355 -0.26761656733 0.5 -0.77163428488 -0.39316730585 0.5
          -0.70062926922 -0.50903696046 0.5 -0.70062926922 -0.50903696046 0.5
          -0.6123724357 -0.6123724357 0.5 -0.50903696046 -0.70062926922 0.5
          -1.7694179455e-16 -2.7755575616e-17 1 -1.7694179455e-16 -2.7755575616e-17 1
          -1.7694179455e-16 -2.7755575616e-17 1 -1.7694179455e-16 -2.7755575616e-17 1
          -1.1449174941e-16 -5.5511151231e-17 1 -1.1449174941e-16 -5.5511151231e-17 1
          -0.50903696046 -0.70062926922 -0.5 -0.39316730585 -0.77163428488 -0.5
          -0.26761656733 -0.82363910355 -0.5 -0.26761656733 -0.82363910355 -0.5
          -0.13547622075 -0.85536319398 -0.5 -9.9920072216e-16 -0.86602540378 -0.5
          -7.7715611724e-16 -0.86602540378 0.5 0.13547622075 -0.85536319398 0.5
          0.26761656733 -0.82363910355 0.5 0.26761656733 -0.82363910355 0.5
          0.39316730585 -0.77163428488 0.5 0.50903696046 -0.70062926922 0.5
          -2.7755575616e-17 -2.2204460493e-16 1 -2.7755575616e-17 -2.2204460493e-16 1
          5.5511151231e-17 -1.1102230246e-16 1 5.5511151231e-17 -1.1102230246e-16 1
          5.5511151231e-17 -1.1102230246e-16 1 5.5511151231e-17 -1.1102230246e-16 1
          0.50903696046 -0.70062926922 -0.5 0.6123724357 -0.6123724357 -0.5
          0.70062926922 -0.50903696046 -0.5 0.70062926922 -0.50903696046 -0.5
          0.77163428488 -0.39316730585 -0.5 0.82363910355 -0.26761656733 -0.5
          0.82363910355 -0.26761656733 0.5 0.85536319398 -0.13547622075 0.5
          0.86602540378 -1.7435321054e-15 0.5 0.86602540378 -1.7435321054e-15 0.5
          0.85536319398 0.13547622075 0.5 0.82363910355 0.26761656733 0.5
          2.2204460493e-16 -5.5511151231e-17 1 2.2204460493e-16 -5.5511151231e-17 1
          2.2204460493e-16 -5.5511151231e-17 1 2.2204460493e-16 -5.5511151231e-17 1
          2.2204460493e-16 -5.5511151231e-17 1 2.2204460493e-16 -5.5511151231e-17 1
          0.82363910355 0.26761656733 -0.5 0.77163428488 0.39316730585 -0.5
          0.70062926922 0.50903696046 -0.5 0.70062926922 0.50903696046 -0.5
          0.6123724357 0.6123724357 -0.5 0.50903696046 0.70062926922 -0.5
          0.50903696046 0.70062926922 0.5 0.39316730585 0.77163428488 0.5
          0.26761656733 0.82363910355 0.5 0.26761656733 0.82363910355 0.5
          0.13547622075 0.85536319398 0.5 4.6629367034e-15 0.86602540378 0.5
          0 1.6653345369e-16 1 0 1.6653345369e-16 1
          0 1.6653345369e-16 1 0 1.6653345369e-16 1
          0 1.6653345369e-16 1 0 1.6653345369e-16 1
          0 0.86602540378 0.5 -0.13547622075 0.85536319398 0.5
          -0.26761656733 0.82363910355 0.5 -0.26761656733 0.82363910355 0.5
          -0.39316730585 0.77163428488 0.5 -0.50903696046 0.70062926922 0.5
          -0.50903696046 0.70062926922 -0.5 -0.6123724357 0.6123724357 -0.5
          -0.70062926922 0.50903696046 -0.5 -0.70062926922 0.50903696046 -0.5
          -0.77163428488 0.39316730585 -0.5 -0.82363910355 0.26761656733 -0.5
          -0.82363910355 0.26761656733 0.5 -0.85536319398 0.13547622075 0.5
          -0.86602540378 -4.5769192328e-16 0.5 -0.86602540378 -4.5769192328e-16 0.5
          -0.85536319398 -0.13547622075 0.5 -0.82363910355 -0.26761656733 0.5
          -0.82363910355 -0.26761656733 -0.5 -0.77163428488 -0.39316730585 -0.5
          -0.70062926922 -0.50903696046 -0.5 -0.70062926922 -0.50903696046 -0.5
          -0.6123724357 -0.6123724357 -0.5 -0.50903696046 -0.70062926922 -0.5
          -0.50903696046 -0.70062926922 0.5 -0.39316730585 -0.77163428488 0.5
          -0.26761656733 -0.82363910355 0.5 -0.26761656733 -0.82363910355 0.5
          -0.13547622075 -0.85536319398 0.5 2.2204460493e-16 -0.86602540378 0.5
          2.2204460493e-16 -0.86602540378 -0.5 0.13547622075 -0.85536319398 -0.5
          0.26761656733 -0.82363910355 -0.5 0.26761656733 -0.82363910355 -0.5
          0.39316730585 -0.77163428488 -0.5 0.50903696046 -0.70062926922 -0.5
          0.50903696046 -0.70062926922 0.5 0.6123724357 -0.6123724357 0.5
          0.70062926922 -0.50903696046 0.5 0.70062926922 -0.50903696046 0.5
          0.77163428488 -0.39316730585 0.5 0.82363910355 -0.26761656733 0.5
          0.82363910355 -0.26761656733 -0.5 0.85536319398 -0.13547622075 -0.5
          0.86602540378 -1.029291063e-15 -0.5 0.86602540378 -1.029291063e-15 -0.5
          0.85536319398 0.13547622075 -0.5 0.82363910355 0.26761656733 -0.5
          0.82363910355 0.26761656733 0.5 0.77163428488 0.39316730585 0.5
          0.70062926922 0.50903696046 0.5 0.70062926922 0.50903696046 0.5
          0.6123724357 0.6123724357 0.5 0.50903696046 0.70062926922 0.5
          0.50903696046 0.70062926922 -0.5 0.39316730585 0.77163428488 -0.5
          0.26761656733 0.82363910355 -0.5 0.26761656733 0.82363910355 -0.5
          0.13547622075 0.85536319398 -0.5 3.9968028887e-15 0.86602540378 -0.5
        </DataArray>
        <DataArray type="Float64" Name="base_vector_2" NumberOfComponents="3" format="ascii" RangeMin="1" RangeMax="1">
          1 0 0 0.9876883406 0.15643446504 0
          0.9510565163 0.30901699437 2.7755575616e-17 0.9510565163 0.30901699437 2.7755575616e-17
          0.89100652419 0.45399049974 0 0.80901699437 0.58778525229 0
          0.80901699437 0.58778525229 2.2204460493e-16 0.70710678119 0.70710678119 2.7755575616e-16
          0.58778525229 0.80901699437 2.2204460493e-16 0.58778525229 0.80901699437 2.2204460493e-16
          0.45399049974 0.89100652419 1.9428902931e-16 0.30901699437 0.9510565163 2.3592239273e-16
          1 -1.1102230246e-16 1.1102230246e-16 1 -1.1102230246e-16 1.1102230246e-16
          1 -1.1102230246e-16 1.1102230246e-16 1 -1.1102230246e-16 1.1102230246e-16
          1 -1.1102230246e-16 1.1102230246e-16 1 -1.1102230246e-16 1.1102230246e-16
          0.30901699437 0.9510565163 -5.5511151231e-17 0.15643446504 0.9876883406 2.0816681712e-17
          4.5769192328e-16 1 7.6994359911e-18 4.5769192328e-16 1 7.6994359911e-18