<?xml version="1.0"?>
<VTKFile type="UnstructuredGrid" version="0.1" byte_order="LittleEndian" header_type="UInt32" compressor="vtkZLibDataCompressor">
  <UnstructuredGrid>
    <Piece NumberOfPoints="132" NumberOfCells="44">
      <PointData>
        <DataArray type="Float64" Name="base_vector_2" NumberOfComponents="3" format="ascii" RangeMin="1" RangeMax="1">
          1 0 0 0.92387953251 0.38268343237 2.7755575616e-17
          0.70710678119 0.70710678119 0 0.70710678119 0.70710678119 0
          0.38268343237 0.92387953251 -1.3877787808e-17 8.0814453732e-16 1 -1.3335814326e-17
          8.6561390993e-16 1 2.2781443281e-16 -0.38268343237 0.92387953251 1.804112415e-16
          -0.70710678119 0.70710678119 2.2204460493e-16 -0.70710678119 0.70710678119 2.2204460493e-16
          -0.92387953251 0.38268343237 2.7755575616e-16 -1 1.3322676296e-15 3.0531133177e-16
          1 -1.1102230246e-16 1.1102230246e-16 1 -1.1102230246e-16 1.1102230246e-16
          1 -1.1102230246e-16 1.1102230246e-16 1 -1.1102230246e-16 1.1102230246e-16
          1 -1.1102230246e-16 1.1102230246e-16 1 -1.1102230246e-16 1.1102230246e-16
          -1 1.3322676296e-15 -2.7755575616e-17 -0.92387953251 -0.38268343237 0
          -0.70710678119 -0.70710678119 2.7755575616e-17 -0.70710678119 -0.70710678119 2.7755575616e-17
          -0.38268343237 -0.92387953251 -2.7755575616e-17 -5.5210377657e-15 -1 -1.4846077349e-17
          -5.5785071383e-15 -1 2.2932469583e-16 0.38268343237 -0.92387953251 2.7755575616e-16
          0.70710678119 -0.70710678119 2.4980018054e-16 0.70710678119 -0.70710678119 2.4980018054e-16
          0.92387953251 -0.38268343237 2.7755575616e-16 1 -7.5495165675e-15 1.9428902931e-16
          -1 1.5543122345e-15 1.1102230246e-16 -1 1.5543122345e-15 1.1102230246e-16
          -1 1.1102230246e-15 1.1102230246e-16 -1 1.1102230246e-15 1.1102230246e-16
          -1 1.1102230246e-15 1.1102230246e-16 -1 2.2204460493e-16 1.1102230246e-16
          1 0 2.2204460493e-16 0.92387953251 0.38268343237 2.4980018054e-16
          0.70710678119 0.70710678119 1.9428902931e-16 0.70710678119 0.70710678119 1.9428902931e-16
          0.38268343237 0.92387953251 1.804112415e-16 -4.0022255066e-16 1 2.2217805448e-16
          -4.5769192328e-16 1 -7.6994359911e-18 -0.38268343237 0.92387953251 2.7755575616e-17
          -0.70710678119 0.70710678119 0 -0.70710678119 0.70710678119 0
          -0.92387953251 0.38268343237 -2.7755575616e-17 -1 0 0
          -3.9252311467e-16 1 7.8504622934e-17 -7.0654160641e-16 1 7.8504622934e-17
          -1.0205600981e-15 1 7.8504622934e-17 -1.0205600981e-15 1 7.8504622934e-17
          -1.0205600981e-15 1 7.8504622934e-17 -1.177569344e-15 1 7.8504622934e-17
          -1 1.1102230246e-16 2.2204460493e-16 -0.92387953251 -0.38268343237 1.6653345369e-16
          -0.70710678119 -0.70710678119 1.9428902931e-16 -0.70710678119 -0.70710678119 1.9428902931e-16
          -0.38268343237 -0.92387953251 2.7755575616e-16 -1.216066524e-15 -1 2.4884968313e-16
          -1.1442298082e-15 -1 1.9248589978e-17 0.38268343237 -0.92387953251 2.7755575616e-17
          0.70710678119 -0.70710678119 0 0.70710678119 -0.70710678119 0
          0.92387953251 -0.38268343237 -2.7755575616e-17 1 -5.5511151231e-15 0
          -1.177569344e-15 -1 7.8504622934e-17 -1.177569344e-15 -1 7.8504622934e-17
          -2.355138688e-16 -1 7.8504622934e-17 -2.355138688e-16 -1 7.8504622934e-17
          7.0654160641e-16 -1 7.8504622934e-17 7.0654160641e-16 -1 7.8504622934e-17
          1 0 0 0.92387953251 0.38268343237 2.7755575616e-17
          0.70710678119 0.70710678119 0 0.70710678119 0.70710678119 0
          0.38268343237 0.92387953251 -1.3877787808e-17 -1.2658364606e-15 1 5.6363783351e-18
          -1.1939997448e-15 1 2.6246189477e-16 -0.38268343237 0.92387953251 2.0816681712e-16
          -0.70710678119 0.70710678119 1.9428902931e-16 -0.70710678119 0.70710678119 1.9428902931e-16
          -0.92387953251 0.38268343237 1.9428902931e-16 -1 -1.9984014443e-15 1.9428902931e-16
          1 -1.1102230246e-16 1.1102230246e-16 1 -1.1102230246e-16 1.1102230246e-16
          1 -1.1102230246e-16 1.1102230246e-16 1 -1.1102230246e-16 1.1102230246e-16
          1 -1.1102230246e-16 1.1102230246e-16 1 -1.1102230246e-16 1.1102230246e-16
          -1 -1.9984014443e-15 2.7755575616e-17 -0.92387953251 -0.38268343237 0
          -0.70710678119 -0.70710678119 -2.7755575616e-17 -0.70710678119 -0.70710678119 -2.7755575616e-17
          -0.38268343237 -0.92387953251 0 8.0814453732e-16 -1 1.3335814326e-17
          7.506751647e-16 -1 2.0114280416e-16 0.38268343237 -0.92387953251 2.2204460493e-16
          0.70710678119 -0.70710678119 2.4980018054e-16 0.70710678119 -0.70710678119 2.4980018054e-16
          0.92387953251 -0.38268343237 2.2204460493e-16 1 -4.4408920985e-16 1.9428902931e-16
          -1 -1.8873791419e-15 5.5511151231e-17 -1 -1.8873791419e-15 5.5511151231e-17
          -1 -2.3314683517e-15 5.5511151231e-17 -1 -2.3314683517e-15 5.5511151231e-17
          -1 -2.7755575616e-15 5.5511151231e-17 -1 -3.2196467714e-15 5.5511151231e-17
          1 0 2.2204460493e-16 0.92387953251 0.38268343237 2.4980018054e-16
          0.70710678119 0.70710678119 2.2204460493e-16 0.70710678119 0.70710678119 2.2204460493e-16
          0.38268343237 0.92387953251 1.9428902931e-16 -2.5814428578e-15 1 2.3194054812e-16
          -2.6389122304e-15 1 -1.7461929638e-17 -0.38268343237 0.92387953251 -1.3877787808e-17
          -0.70710678119 0.70710678119 -2.7755575616e-17 -0.70710678119 0.70710678119 -2.7755575616e-17
          -0.92387953251 0.38268343237 5.5511151231e-17 -1 -3.5527136788e-15 -2.7755575616e-17
          -1 -3.4416913763e-15 3.0531133177e-16 -0.92387953251 -0.38268343237 2.4980018054e-16
          -0.70710678119 -0.70710678119 1.9428902931e-16 -0.70710678119 -0.70710678119 1.9428902931e-16
          -0.38268343237 -0.92387953251 2.2204460493e-16 4.1977319324e-15 -1 2.0526891947e-16
          4.2552013051e-15 -1 9.2096990142e-18 0.38268343237 -0.92387953251 1.3877787808e-17
          0.70710678119 -0.70710678119 -5.5511151231e-17 0.70710678119 -0.70710678119 -5.5511151231e-17
          0.92387953251 -0.38268343237 0 1 2.2204460493e-15 2.7755575616e-17
        </DataArray>
        <DataArray type="Float64" Name="base_vector_3" NumberOfComponents="3" format="ascii" RangeMin="1" RangeMax="1">
          0 -0.5 -0.86602540378 0.19134171618 -0.46193976626 -0.86602540378
          0.35355339059 -0.35355339059 -0.86602540378 0.35355339059 -0.35355339059 -0.86602540378
          0.46193976626 -0.19134171618 -0.86602540378 0.5 -4.1562142264e-16 -0.86602540378
          -0.5 6.3010004113e-16 -0.86602540378 -0.46193976626 -0.19134171618 -0.86602540378
          -0.35355339059 -0.35355339059 -0.86602540378 -0.35355339059 -0.35355339059 -0.86602540378
          -0.19134171618 -0.46193976626 -0.86602540378 -9.4368957093e-16 -0.5 -0.86602540378
          1.1102230246e-16 1 -1.1102230246e-16 1.1102230246e-16 1 -1.1102230246e-16
          1.1102230246e-16 1 -1.1102230246e-16 1.1102230246e-16 1 -1.1102230246e-16
          1.1102230246e-16 1 -1.1102230246e-16 1.1102230246e-16 1 -1.1102230246e-16
          6.9388939039e-16 0.5 -0.86602540378 -0.19134171618 0.46193976626 -0.86602540378
          -0.35355339059 0.35355339059 -0.86602540378 -0.35355339059 0.35355339059 -0.86602540378
          -0.46193976626 0.19134171618 -0.86602540378 -0.5 2.773375963e-15 -0.86602540378
          0.5 -2.9878545814e-15 -0.86602540378 0.46193976626 0.19134171618 -0.86602540378
          0.35355339059 0.35355339059 -0.86602540378 0.35355339059 0.35355339059 -0.86602540378
          0.19134171618 0.46193976626 -0.86602540378 3.9412917374e-15 0.5 -0.86602540378
          -1.5543122345e-15 -1 -1.1102230246e-16 -1.5543122345e-15 -1 -1.1102230246e-16
          -1.1102230246e-15 -1 -1.1102230246e-16 -1.1102230246e-15 -1 -1.1102230246e-16
          -1.1102230246e-15 -1 -1.1102230246e-16 -2.2204460493e-16 -1 -1.1102230246e-16
          2.2204460493e-16 0.5 -0.86602540378 -0.19134171618 0.46193976626 -0.86602540378
          -0.35355339059 0.35355339059 -0.86602540378 -0.35355339059 0.35355339059 -0.86602540378
          -0.46193976626 0.19134171618 -0.86602540378 -0.5 -7.6994359911e-18 -0.86602540378
          0.5 2.2217805448e-16 -0.86602540378 0.46193976626 0.19134171618 -0.86602540378
          0.35355339059 0.35355339059 -0.86602540378 0.35355339059 0.35355339059 -0.86602540378
          0.19134171618 0.46193976626 -0.86602540378 0 0.5 -0.86602540378
          -1 -3.9252311467e-16 2.4651903288e-32 -1 -7.0654160641e-16 9.8607613153e-32
          -1 -1.0205600981e-15 2.2186712959e-31 -1 -1.0205600981e-15 2.2186712959e-31
          -1 -1.0205600981e-15 2.2186712959e-31 -1 -1.177569344e-15 -2.2204460493e-16
          -2.2204460493e-16 -0.5 -0.86602540378 0.19134171618 -0.46193976626 -0.86602540378
          0.35355339059 -0.35355339059 -0.86602540378 0.35355339059 -0.35355339059 -0.86602540378
          0.46193976626 -0.19134171618 -0.86602540378 0.5 -8.235434093e-16 -0.86602540378
          -0.5 5.5544513619e-16 -0.86602540378 -0.46193976626 -0.19134171618 -0.86602540378
          -0.35355339059 -0.35355339059 -0.86602540378 -0.35355339059 -0.35355339059 -0.86602540378
          -0.19134171618 -0.46193976626 -0.86602540378 -2.7755575616e-15 -0.5 -0.86602540378
          1 -1.177569344e-15 0 1 -1.177569344e-15 0
          1 -2.355138688e-16 0 1 -2.355138688e-16 0
          1 7.0654160641e-16 0 1 7.0654160641e-16 0
          0 -0.5 -0.86602540378 0.19134171618 -0.46193976626 -0.86602540378
          0.35355339059 -0.35355339059 -0.86602540378 0.35355339059 -0.35355339059 -0.86602540378
          0.46193976626 -0.19134171618 -0.86602540378 0.5 6.3779947712e-16 -0.86602540378
          -0.5 -3.6970120401e-16 -0.86602540378 -0.46193976626 -0.19134171618 -0.86602540378
          -0.35355339059 -0.35355339059 -0.86602540378 -0.35355339059 -0.35355339059 -0.86602540378
          -0.19134171618 -0.46193976626 -0.86602540378 7.7715611724e-16 -0.5 -0.86602540378
          1.1102230246e-16 1 -1.1102230246e-16 1.1102230246e-16 1 -1.1102230246e-16
          1.1102230246e-16 1 -1.1102230246e-16 1.1102230246e-16 1 -1.1102230246e-16
          1.1102230246e-16 1 -1.1102230246e-16 1.1102230246e-16 1 -1.1102230246e-16
          -9.9920072216e-16 0.5 -0.86602540378 -0.19134171618 0.46193976626 -0.86602540378
          -0.35355339059 0.35355339059 -0.86602540378 -0.35355339059 0.35355339059 -0.86602540378
          -0.46193976626 0.19134171618 -0.86602540378 -0.5 -4.1562142264e-16 -0.86602540378
          0.5 2.0114280416e-16 -0.86602540378 0.46193976626 0.19134171618 -0.86602540378
          0.35355339059 0.35355339059 -0.86602540378 0.35355339059 0.35355339059 -0.86602540378
          0.19134171618 0.46193976626 -0.86602540378 3.8857805862e-16 0.5 -0.86602540378
          1.9984014443e-15 -1 0 1.9984014443e-15 -1 0
          2.4424906542e-15 -1 0 2.4424906542e-15 -1 0
          2.886579864e-15 -1 0 3.3306690739e-15 -1 0
          2.2204460493e-16 0.5 -0.86602540378 -0.19134171618 0.46193976626 -0.86602540378
          -0.35355339059 0.35355339059 -0.86602540378 -0.35355339059 0.35355339059 -0.86602540378
          -0.46193976626 0.19134171618 -0.86602540378 -0.5 -1.0898550221e-15 -0.86602540378
          0.5 1.3043336405e-15 -0.86602540378 0.46193976626 0.19134171618 -0.86602540378
          0.35355339059 0.35355339059 -0.86602540378 0.35355339059 0.35355339059 -0.86602540378
          0.19134171618 0.46193976626 -0.86602540378 -1.7486012638e-15 0.5 -0.86602540378
          1.5265566589e-15 -0.5 -0.86602540378 0.19134171618 -0.46193976626 -0.86602540378
          0.35355339059 -0.35355339059 -0.86602540378 0.35355339059 -0.35355339059 -0.86602540378
          0.46193976626 -0.19134171618 -0.86602540378 0.5 1.9210978674e-15 -0.86602540378
          -0.5 -2.1355764858e-15 -0.86602540378 -0.46193976626 -0.19134171618 -0.86602540378
          -0.35355339059 -0.35355339059 -0.86602540378 -0.35355339059 -0.35355339059 -0.86602540378
          -0.19134171618 -0.46193976626 -0.86602540378 1.1934897515e-15 -0.5 -0.86602540378
        </DataArray>
        <DataArray type="Float64" Name="base_vector_1" NumberOfComponents="3" format="ascii" RangeMin="1" RangeMax="1">
          0 0.86602540378 -0.5 -0.33141357404 0.80010314519 -0.5
          -0.6123724357 0.6123724357 -0.5 -0.6123724357 0.6123724357 -0.5
          -0.80010314519 0.33141357404 -0.5 -0.86602540378 6.9320579208e-16 -0.5
          -0.86602540378 6.3573641946e-16 0.5 -0.80010314519 -0.33141357404 0.5
          -0.6123724357 -0.6123724357 0.5 -0.6123724357 -0.6123724357 0.5
          -0.33141357404 -0.80010314519 0.5 -1.1102230246e-15 -0.86602540378 0.5
          -1.1102230246e-16 1.1102230246e-16 1 -1.1102230246e-16 1.1102230246e-16 1
          -1.1102230246e-16 1.1102230246e-16 1 -1.1102230246e-16 1.1102230246e-16 1
          -1.1102230246e-16 1.1102230246e-16 1 -1.1102230246e-16 1.1102230246e-16 1
          -1.1102230246e-15 -0.86602540378 -0.5 0.33141357404 -0.80010314519 -0.5
          0.6123724357 -0.6123724357 -0.5 0.6123724357 -0.6123724357 -0.5
          0.80010314519 -0.33141357404 -0.5 0.86602540378 -4.7739359216e-15 -0.5
          0.86602540378 -4.716466549e-15 0.5 0.80010314519 0.33141357404 0.5
          0.6123724357 0.6123724357 0.5 0.6123724357 0.6123724357 0.5
          0.33141357404 0.80010314519 0.5 6.3282712404e-15 0.86602540378 0.5
          1.1102230246e-16 -1.1102230246e-16 1 1.1102230246e-16 -1.1102230246e-16 1
          1.1102230246e-16 -1.1102230246e-16 1 1.1102230246e-16 -1.1102230246e-16 1
          1.1102230246e-16 -1.1102230246e-16 1 1.1102230246e-16 -1.1102230246e-16 1
          0 0.86602540378 0.5 -0.33141357404 0.80010314519 0.5
          -0.6123724357 0.6123724357 0.5 -0.6123724357 0.6123724357 0.5
          -0.80010314519 0.33141357404 0.5 -0.86602540378 -4.5769192328e-16 0.5
          -0.86602540378 -4.0022255066e-16 -0.5 -0.80010314519 -0.33141357404 -0.5
          -0.6123724357 -0.6123724357 -0.5 -0.6123724357 -0.6123724357 -0.5
          -0.33141357404 -0.80010314519 -0.5 0 -0.86602540378 -0.5
          5.5466782398e-32 -7.8504622934e-17 1 1.5407439555e-31 -7.8504622934e-17 1
          3.0198581528e-31 -7.8504622934e-17 1 3.0198581528e-31 -7.8504622934e-17 1
          3.0198581528e-31 -7.8504622934e-17 1 -2.2204460493e-16 -7.8504622934e-17 1
          1.1102230246e-16 -0.86602540378 0.5 0.33141357404 -0.80010314519 0.5
          0.6123724357 -0.6123724357 0.5 0.6123724357 -0.6123724357 0.5
          0.80010314519 -0.33141357404 0.5 0.86602540378 -9.2871966088e-16 0.5
          0.86602540378 -1.0005563767e-15 -0.5 0.80010314519 0.33141357404 -0.5
          0.6123724357 0.6123724357 -0.5 0.6123724357 0.6123724357 -0.5
          0.33141357404 0.80010314519 -0.5 4.7739590059e-15 0.86602540378 -0.5
          0 7.8504622934e-17 1 0 7.8504622934e-17 1
          0 7.8504622934e-17 1 0 7.8504622934e-17 1
          0 7.8504622934e-17 1 0 7.8504622934e-17 1
          0 0.86602540378 -0.5 -0.33141357404 0.80010314519 -0.5
          -0.6123724357 0.6123724357 -0.5 -0.6123724357 0.6123724357 -0.5
          -0.80010314519 0.33141357404 -0.5 -0.86602540378 -1.0934283427e-15 -0.5
          -0.86602540378 -1.1652650585e-15 0.5 -0.80010314519 -0.33141357404 0.5
          -0.6123724357 -0.6123724357 0.5 -0.6123724357 -0.6123724357 0.5
          -0.33141357404 -0.80010314519 0.5 1.6653345369e-15 -0.86602540378 0.5
          -1.1102230246e-16 1.1102230246e-16 1 -1.1102230246e-16 1.1102230246e-16 1
          -1.1102230246e-16 1.1102230246e-16 1 -1.1102230246e-16 1.1102230246e-16 1
          -1.1102230246e-16 1.1102230246e-16 1 -1.1102230246e-16 1.1102230246e-16 1
          1.6653345369e-15 -0.86602540378 -0.5 0.33141357404 -0.80010314519 -0.5
          0.6123724357 -0.6123724357 -0.5 0.6123724357 -0.6123724357 -0.5
          0.80010314519 -0.33141357404 -0.5 0.86602540378 6.9320579208e-16 -0.5
          0.86602540378 7.506751647e-16 0.5 0.80010314519 0.33141357404 0.5
          0.6123724357 0.6123724357 0.5 0.6123724357 0.6123724357 0.5
          0.33141357404 0.80010314519 0.5 1.1102230246e-16 0.86602540378 0.5
          2.2204460493e-16 -5.5511151231e-17 1 2.2204460493e-16 -5.5511151231e-17 1
          2.2204460493e-16 -5.5511151231e-17 1 2.2204460493e-16 -5.5511151231e-17 1
          2.2204460493e-16 -5.5511151231e-17 1 2.2204460493e-16 -5.5511151231e-17 1
          0 0.86602540378 0.5 -0.33141357404 0.80010314519 0.5
          -0.6123724357 0.6123724357 0.5 -0.6123724357 0.6123724357 0.5
          -0.80010314519 0.33141357404 0.5 -0.86602540378 -2.3515653673e-15 0.5
          -0.86602540378 -2.2940959947e-15 -0.5 -0.80010314519 -0.33141357404 -0.5
          -0.6123724357 -0.6123724357 -0.5 -0.6123724357 -0.6123724357 -0.5
          -0.33141357404 -0.80010314519 -0.5 3.108624469e-15 -0.86602540378 -0.5
          3.2196467714e-15 -0.86602540378 0.5 0.33141357404 -0.80010314519 0.5
          0.6123724357 -0.6123724357 0.5 0.6123724357 -0.6123724357 0.5
          0.80010314519 -0.33141357404 0.5 0.86602540378 3.7379769515e-15 0.5
          0.86602540378 3.6805075789e-15 -0.5 0.80010314519 0.33141357404 -0.5
          0.6123724357 0.6123724357 -0.5 0.6123724357 0.6123724357 -0.5
          0.33141357404 0.80010314519 -0.5 -1.9984014443e-15 0.86602540378 -0.5
        </DataArray>
        <DataArray type="Float64" Name="geometry_line_set_1" format="ascii" RangeMin="1" RangeMax="1">
          1 1 1 1 1 1
          1 1 1 1 1 1
          1 1 1 1 1 1
          1 1 1 1 1 1
          1 1 1 1 1 1
          1 1 1 1 1 1
          1 1 1 1 1 1
          1 1 1 1 1 1
          1 1 1 1 1 1
          1 1 1 1 1 1
          1 1 1 1 1 1
          1 1 1 1 1 1
          1 1 1 1 1 1
          1 1 1 1 1 1
          1 1 1 1 1 1
          1 1 1 1 1 1
          1 1 1 1 1 1
          1 1 1 1 1 1
          1 1 1 1 1 1
          1 1 1 1 1 1
          1 1 1 1 1 1
          1 1 1 1 1 1
        </DataArray>
        <DataArray type="Float64" Name="geometry_point_set_14" format="ascii" RangeMin="0" RangeMax="1">
          0 0 0 0 0 0
          0 0 0 0 0 0
          0 0 0 0 0 0
          0 0 0 0 0 0
          0 0 0 0 0 0
          0 0 0 0 0 0
          0 0 0 0 0 0
          0 0 0 0 0 0
          0 0 0 0 0 0
          0 0 0 0 0 0
          0 0 0 0 0 0
          0 0 0 0 0 0
          0 0 0 0 0 0
          0 0 0 0 0 1
          0 0 0 0 0 0
          1 0 0 0 0 0
          0 0 0 0 0 0
          1 0 0 0 0 0
          0 0 0 0 0 0
          0 0 0 0 0 0
          0 0 0 0 0 0
          0 0 0 0 0 0
        </DataArray>
        <DataArray type="Float64" Name="geometry_point_set_16" format="ascii" RangeMin="0" RangeMax="1">
          0 0 0 0 0 0
          0 0 0 0 0 0
          0 0 0 0 0 0
          0 0 0 0 0 0
          0 0 0 0 0 0
          0 0 0 0 0 0
          0 0 0 0 0 0
          0 0 0 0 0 0
          0 0 0 0 0 0
          0 0 0 0 0 0
          0 0 0 0 0 0
          0 0 0 0 0 0
          0 0 0 0 0 0
          0 0 0 0 0 0
          0 0 0 0 0 0
          0 0 0 0 0 0
          0 0 0 0 0 0
          0 0 0 0 0 1
          0 0 0 0 0 0
          0 0 0 0 0 1
          1 0 0 0 0 0
          0 0 0 0 0 0
        </DataArray>
        <DataArray type="Float64" Name="geometry_point_set_9" format="ascii" RangeMin="0" RangeMax="1">
          0 0 0 0 0 0
          0 0 0 0 0 0
          0 0 0 0 0 0
          0 0 0 0 0 0
          0 0 0 0 0 0
          0 0 0 0 0 0
          0 0 0 0 0 1
          1 0 0 0 0 0
          1 0 0 0 0 0
          0 0 0 0 0 0
          0 0 0 0 0 0
          0 0 0 0 0 0
          0 0 0 0 0 0
          0 0 0 0 0 0
          0 0 0 0 0 0
          0 0 0 0 0 0
          0 0 0 0 0 0
          0 0 0 0 0 0
          0 0 0 0 0 0
          0 0 0 0 0 0
          0 0 0 0 0 0
          0 0 0 0 0 0
        </DataArray>
        <DataArray type="Float64" Name="geometry_point_set_12" format="ascii" RangeMin="0" RangeMax="1">
          0 0 0 0 0 0
          0 0 0 0 0 0
          0 0 0 0 0 0
          0 0 0 0 0 0
          0 0 0 0 0 0
          0 0 0 0 0 0
          0 0 0 0 0 0
          0 0 0 0 0 0
          0 0 0 0 0 0
          0 0 0 0 0 0
          0 0 0 0 0 0
          0 0 0 0 0 1
          0 0 0 0 0 0
          0 0 0 0 0 0
          0 0 0 0 0 0
          0 0 0 0 0 1
          1 0 0 0 0 0
          0 0 0 0 0 0
          0 0 0 0 0 0
          0 0 0 0 0 0
          0 0 0 0 0 0
          0 0 0 0 0 0
        </DataArray>
        <DataArray type="Float64" Name="geometry_point_set_17" format="ascii" RangeMin="0" RangeMax="1">
          0 0 0 0 0 0
          0 0 0 0 0 0
          0 0 0 0 0 0
          0 0 0 0 0 0
          0 0 0 0 0 0
          0 0 0 0 0 0
          0 0 0 0 0 0
          0 0 0 0 0 0
          0 0 0 0 0 0
          0 0 0 0 0 0
          0 0 0 0 0 0
          0 0 0 0 0 0
          0 0 0 0 0 0
          0 0 0 0 0 0
          0 0 0 0 0 0
          0 0 0 0 0 0
          0 0 0 0 0 0
          0 0 0 0 0 0
          0 0 0 0 0 1
          1 0 0 0 0 0
          0 0 0 0 0 0
          0 0 0 0 0 0
        </DataArray>
        <DataArray type="Float64" Name="geometry_point_set_4" format="ascii" RangeMin="0" RangeMax="1">
          0 0 0 0 0 1
          1 0 0 0 0 0
          0 0 0 0 0 0
          0 0 0 0 0 0
          0 0 0 0 0 0
          0 0 0 0 0 0
          0 0 0 0 0 0
          0 0 0 0 0 0
          0 0 0 0 0 0
          0 0 0 0 0 0
          0 0 0 0 0 0
          0 0 0 0 0 0
          0 0 0 0 0 0
          0 0 0 0 0 0
          0 0 0 0 0 0
          0 0 0 0 0 0
          0 0 0 0 0 0
          0 0 0 0 0 0
          0 0 0 0 0 0
          0 0 0 0 0 0
          0 0 0 0 0 0
          0 0 0 0 0 0
        </DataArray>
        <DataArray type="Float64" Name="geometry_point_set_13" format="ascii" RangeMin="0" RangeMax="1">
          0 0 0 0 0 0
          0 0 0 0 0 0
          0 0 0 0 0 0
          0 0 0 0 0 0
          0 0 0 0 0 0
          0 0 0 0 0 0
          0 0 0 0 0 0
          0 0 0 0 0 0
          0 0 0 0 0 0
          0 0 0 0 0 0
          0 0 0 0 0 0
          0 0 0 0 0 0
          1 0 0 0 0 0
          0 0 0 0 0 0
          1 0 0 0 0 0
          0 0 0 0 0 0
          0 0 0 0 0 1
          0 0 0 0 0 0
          0 0 0 0 0 0
          0 0 0 0 0 0
          0 0 0 0 0 0
          0 0 0 0 0 0
        </DataArray>
        <DataArray type="Float64" Name="geometry_point_set_7" format="ascii" RangeMin="0" RangeMax="1">
          0 0 0 0 0 0
          0 0 0 0 0 0
          0 0 0 0 0 0
          0 0 0 0 0 1
          1 0 0 0 0 0
          0 0 0 0 0 0
          0 0 0 0 0 0
          0 0 0 0 0 0
          0 0 0 0 0 0
          0 0 0 0 0 0
          0 0 0 0 0 0
          0 0 0 0 0 0
          0 0 0 0 0 0
          0 0 0 0 0 0
          0 0 0 0 0 0
          0 0 0 0 0 0
          0 0 0 0 0 0
          0 0 0 0 0 0
          0 0 0 0 0 0
          0 0 0 0 0 0
          0 0 0 0 0 0
          0 0 0 0 0 0
        </DataArray>
        <DataArray type="Float64" Name="geometry_point_set_15" format="ascii" RangeMin="0" RangeMax="1">
          0 0 0 0 0 0
          0 0 0 0 0 0
          0 0 0 0 0 0
          0 0 0 0 0 0
          0 0 0 0 0 0
          0 0 0 0 0 0
          0 0 0 0 0 0
          0 0 0 0 0 0
          0 0 0 0 0 0
          0 0 0 0 0 0
          0 0 0 0 0 0
          0 0 0 0 0 0
          0 0 0 0 0 0
          0 0 0 0 0 0
          0 0 0 0 0 1
          0 0 0 0 0 0
          0 0 0 0 0 0
          0 0 0 0 0 0
          1 0 0 0 0 0
          0 0 0 0 0 0
          0 0 0 0 0 0
          0 0 0 0 0 1
        </DataArray>
        <DataArray type="Float64" Name="node_value" format="ascii" RangeMin="0.5" RangeMax="1">
          1 0.5 1 1 0.5 1
          1 0.5 1 1 0.5 1
          1 0.5 1 1 0.5 1
          1 0.5 1 1 0.5 1
          1 0.5 1 1 0.5 1
          1 0.5 1 1 0.5 1
          1 0.5 1 1 0.5 1
          1 0.5 1 1 0.5 1
          1 0.5 1 1 0.5 1
          1 0.5 1 1 0.5 1
          1 0.5 1 1 0.5 1
          1 0.5 1 1 0.5 1
          1 0.5 1 1 0.5 1
          1 0.5 1 1 0.5 1
          1 0.5 1 1 0.5 1
          1 0.5 1 1 0.5 1
          1 0.5 1 1 0.5 1
          1 0.5 1 1 0.5 1
          1 0.5 1 1 0.5 1
          1 0.5 1 1 0.5 1
          1 0.5 1 1 0.5 1
          1 0.5 1 1 0.5 1
        </DataArray>
        <DataArray type="Float64" Name="geometry_point_set_6" format="ascii" RangeMin="0" RangeMax="1">
          0 0 0 0 0 0
          0 0 0 0 0 0
          0 0 0 0 0 1
          0 0 0 0 0 0
          0 0 0 0 0 0
          0 0 0 0 0 0
          1 0 0 0 0 0
          0 0 0 0 0 0
          0 0 0 0 0 0
          0 0 0 0 0 0
          0 0 0 0 0 1
          0 0 0 0 0 0
          0 0 0 0 0 0
          0 0 0 0 0 0
          0 0 0 0 0 0
          0 0 0 0 0 0
          0 0 0 0 0 0
          0 0 0 0 0 0
          0 0 0 0 0 0
          0 0 0 0 0 0
          0 0 0 0 0 0
          0 0 0 0 0 0
        </DataArray>
        <DataArray type="Float64" Name="geometry_point_set_3" format="ascii" RangeMin="0" RangeMax="1">
          1 0 0 0 0 0
          0 0 0 0 0 0
          1 0 0 0 0 0
          0 0 0 0 0 0
          0 0 0 0 0 1
          0 0 0 0 0 0
          0 0 0 0 0 0
          0 0 0 0 0 0
          0 0 0 0 0 0
          0 0 0 0 0 0
          0 0 0 0 0 0
          0 0 0 0 0 0
          0 0 0 0 0 0
          0 0 0 0 0 0
          0 0 0 0 0 0
          0 0 0 0 0 0
          0 0 0 0 0 0
          0 0 0 0 0 0
          0 0 0 0 0 0
          0 0 0 0 0 0
          0 0 0 0 0 0
          0 0 0 0 0 0
        </DataArray>
        <DataArray type="Float64" Name="geometry_point_set_10" format="ascii" RangeMin="0" RangeMax="1">
          0 0 0 0 0 0
          0 0 0 0 0 0
          0 0 0 0 0 0
          0 0 0 0 0 0
          0 0 0 0 0 0
          0 0 0 0 0 0
          0 0 0 0 0 0
          0 0 0 0 0 0
          0 0 0 0 0 1
          0 0 0 0 0 0
          0 0 0 0 0 0
          0 0 0 0 0 0
          0 0 0 0 0 1
          1 0 0 0 0 0
          0 0 0 0 0 0
          0 0 0 0 0 0
          0 0 0 0 0 0
          0 0 0 0 0 0
          0 0 0 0 0 0
          0 0 0 0 0 0
          0 0 0 0 0 0
          0 0 0 0 0 0
        </DataArray>
        <DataArray type="Float64" Name="geometry_point_set_5" format="ascii" RangeMin="0" RangeMax="1">
          0 0 0 0 0 0
          0 0 0 0 0 1
          0 0 0 0 0 0
          1 0 0 0 0 0
          0 0 0 0 0 0
          1 0 0 0 0 0
          0 0 0 0 0 0
          0 0 0 0 0 0
          0 0 0 0 0 0
          0 0 0 0 0 0
          0 0 0 0 0 0
          0 0 0 0 0 0
          0 0 0 0 0 0
          0 0 0 0 0 0
          0 0 0 0 0 0
          0 0 0 0 0 0
          0 0 0 0 0 0
          0 0 0 0 0 0
          0 0 0 0 0 0
          0 0 0 0 0 0
          0 0 0 0 0 0
          0 0 0 0 0 0
        </DataArray>
        <DataArray type="Float64" Name="geometry_point_set_11" format="ascii" RangeMin="0" RangeMax="1">
          0 0 0 0 0 0
          0 0 0 0 0 0
          0 0 0 0 0 0
          0 0 0 0 0 0
          0 0 0 0 0 0
          0 0 0 0 0 0
          0 0 0 0 0 0
          0 0 0 0 0 0
          0 0 0 0 0 0
          0 0 0 0 0 1
          1 0 0 0 0 0
          1 0 0 0 0 0
          0 0 0 0 0 0
          0 0 0 0 0 0
          0 0 0 0 0 0
          0 0 0 0 0 0
          0 0 0 0 0 0
          0 0 0 0 0 0
          0 0 0 0 0 0
          0 0 0 0 0 0
          0 0 0 0 0 0
          0 0 0 0 0 0
        </DataArray>
        <DataArray type="Float64" Name="geometry_point_set_18" format="ascii" RangeMin="0" RangeMax="1">
          0 0 0 0 0 0
          0 0 0 0 0 0
          0 0 0 0 0 0
          0 0 0 0 0 0
          0 0 0 0 0 0
          0 0 0 0 0 0
          0 0 0 0 0 0
          0 0 0 0 0 0
          0 0 0 0 0 0
          0 0 0 0 0 0
          0 0 0 0 0 0
          0 0 0 0 0 0
          0 0 0 0 0 0
          0 0 0 0 0 0
          0 0 0 0 0 0
          0 0 0 0 0 0
          0 0 0 0 0 0
          0 0 0 0 0 0
          0 0 0 0 0 0
          0 0 0 0 0 0
          0 0 0 0 0 1
          1 0 0 0 0 0
        </DataArray>
        <DataArray type="Float64" Name="geometry_point_set_8" format="ascii" RangeMin="0" RangeMax="1">
          0 0 0 0 0 0
          0 0 0 0 0 0
          0 0 0 0 0 0
          0 0 0 0 0 0
          0 0 0 0 0 0
          0 0 0 0 0 1
          0 0 0 0 0 0
          0 0 0 0 0 1
          0 0 0 0 0 0
          1 0 0 0 0 0
          0 0 0 0 0 0
          0 0 0 0 0 0
          0 0 0 0 0 0
          0 0 0 0 0 0
          0 0 0 0 0 0
          0 0 0 0 0 0
          0 0 0 0 0 0
          0 0 0 0 0 0
          0 0 0 0 0 0
          0 0 0 0 0 0
          0 0 0 0 0 0
          0 0 0 0 0 0
        </DataArray>
        <DataArray type="Float64" Name="geometry_point_set_2" format="ascii" RangeMin="0" RangeMax="1">
          0 0 0 0 0 1
          1 0 0 0 0 0
          0 0 0 0 0 0
          0 0 0 0 0 1
          1 0 0 0 0 0
          0 0 0 0 0 0
          0 0 0 0 0 0
          0 0 0 0 0 0
          0 0 0 0 0 0
          0 0 0 0 0 0
          0 0 0 0 0 0
          0 0 0 0 0 0
          0 0 0 0 0 0
          0 0 0 0 0 0
          0 0 0 0 0 0
          0 0 0 0 0 0
          0 0 0 0 0 0
          0 0 0 0 0 0
          0 0 0 0 0 0
          0 0 0 0 0 0
          0 0 0 0 0 0
          0 0 0 0 0 0
        </DataArray>
        <DataArray type="Float64" Name="geometry_point_set_1" format="ascii" RangeMin="0" RangeMax="1">
          0 0 0 0 0 0
          0 0 0 0 0 0
          0 0 0 0 0 0
          0 0 0 0 0 0
          0 0 0 0 0 0
          0 0 0 0 0 0
          0 0 0 0 0 0
          0 0 0 0 0 0
          0 0 0 0 0 0
          0 0 0 0 0 0
          0 0 0 0 0 0
          0 0 0 0 0 0
          0 0 0 0 0 0
          0 0 0 0 0 0
          0 0 0 0 0 0
          0 0 0 0 0 0
          0 0 0 0 0 0
          0 0 0 0 0 0
          0 0 0 0 0 1
          1 0 0 0 0 0
          0 0 0 0 0 1
          1 0 0 0 0 0
        </DataArray>
      </PointData>
      <CellData>
        <DataArray type="Float64" Name="cross_section_radius" format="ascii" RangeMin="0.05" RangeMax="0.05">
          0.05 0.05 0.05 0.05 0.05 0.05
          0.05 0.05 0.05 0.05 0.05 0.05
          0.05 0.05 0.05 0.05 0.05 0.05
          0.05 0.05 0.05 0.05 0.05 0.05
          0.05 0.05 0.05 0.05 0.05 0.05
          0.05 0.05 0.05 0.05 0.05 0.05